/*--------------------------------*- C++ -*----------------------------------*\
  =========                 |
  \\      /  F ield         | OpenFOAM: The Open Source CFD Toolbox
   \\    /   O peration     | Website:  https://openfoam.org
    \\  /    A nd           | Version:  7
     \\/     M anipulation  |
\*---------------------------------------------------------------------------*/
FoamFile
{
    version     2.0;
    format      ascii;
    class       surfaceScalarField;
    location    "0.0424";
    object      phi;
}
// * * * * * * * * * * * * * * * * * * * * * * * * * * * * * * * * * * * * * //

dimensions      [0 3 -1 0 0 0 0];

internalField   nonuniform List<scalar> 
4900
(
5.45478e-06
-5.4548e-06
9.95344e-06
-4.49866e-06
1.26942e-05
-2.74079e-06
1.44123e-05
-1.71806e-06
1.55281e-05
-1.11581e-06
1.62807e-05
-7.5256e-07
1.6811e-05
-5.30316e-07
1.72006e-05
-3.89655e-07
1.74969e-05
-2.96258e-07
1.77281e-05
-2.31184e-07
1.7912e-05
-1.839e-07
1.80603e-05
-1.48339e-07
1.81812e-05
-1.20848e-07
1.82803e-05
-9.91246e-08
1.83619e-05
-8.16519e-08
1.84293e-05
-6.7388e-08
1.84849e-05
-5.55909e-08
1.85306e-05
-4.57141e-08
1.8568e-05
-3.73434e-08
1.85981e-05
-3.01557e-08
1.8622e-05
-2.38922e-08
1.86404e-05
-1.83397e-08
1.86537e-05
-1.33179e-08
1.86623e-05
-8.66914e-09
1.86666e-05
-4.25134e-09
1.86665e-05
7.02139e-11
1.86621e-05
4.42127e-09
1.86532e-05
8.936e-09
1.86394e-05
1.37508e-08
1.86204e-05
1.90167e-08
1.85955e-05
2.49057e-08
1.85639e-05
3.16206e-08
1.85245e-05
3.94088e-08
1.84759e-05
4.85808e-08
1.84164e-05
5.95383e-08
1.83435e-05
7.28149e-08
1.82544e-05
8.91406e-08
1.81449e-05
1.09544e-07
1.80093e-05
1.35524e-07
1.784e-05
1.69356e-07
1.76253e-05
2.14641e-07
1.7348e-05
2.77371e-07
1.698e-05
3.68009e-07
1.64743e-05
5.05637e-07
1.57487e-05
7.25628e-07
1.46572e-05
1.09153e-06
1.29451e-05
1.71208e-06
1.01621e-05
2.78303e-06
5.55733e-06
4.60473e-06
5.55733e-06
-1.19135e-07
-5.33566e-06
1.832e-06
-6.4498e-06
4.41326e-06
-5.32205e-06
6.72875e-06
-4.03355e-06
8.6081e-06
-2.99516e-06
1.00898e-05
-2.23425e-06
1.12535e-05
-1.69407e-06
1.21735e-05
-1.30964e-06
1.29083e-05
-1.03099e-06
1.35014e-05
-8.24284e-07
1.39848e-05
-6.67316e-07
1.43819e-05
-5.45515e-07
1.47103e-05
-4.49189e-07
1.49829e-05
-3.71749e-07
1.52099e-05
-3.08606e-07
1.53989e-05
-2.56472e-07
1.55563e-05
-2.12933e-07
1.56867e-05
-1.76169e-07
1.57942e-05
-1.44773e-07
1.58816e-05
-1.1763e-07
1.59516e-05
-9.38345e-08
1.60059e-05
-7.26333e-08
1.60459e-05
-5.33804e-08
1.60728e-05
-3.5507e-08
1.6087e-05
-1.84958e-08
1.6089e-05
-1.86078e-09
1.60785e-05
1.48737e-08
1.60553e-05
3.21876e-08
1.60184e-05
5.05867e-08
1.59668e-05
7.06237e-08
1.58988e-05
9.29242e-08
1.58122e-05
1.18221e-07
1.57042e-05
1.47398e-07
1.55712e-05
1.81555e-07
1.54087e-05
2.22093e-07
1.52106e-05
2.70843e-07
1.49695e-05
3.3026e-07
1.46754e-05
4.03713e-07
1.43149e-05
4.95941e-07
1.38705e-05
6.13788e-07
1.33178e-05
7.67388e-07
1.2623e-05
9.72097e-07
1.17395e-05
1.25158e-06
1.06026e-05
1.64245e-06
9.12848e-06
2.1998e-06
7.22245e-06
2.99755e-06
4.83054e-06
4.10399e-06
2.12068e-06
5.49289e-06
1.07002e-08
6.71471e-06
5.56803e-06
-1.0824e-06
-4.25326e-06
-7.54284e-07
-6.77791e-06
5.88661e-07
-6.66499e-06
2.29983e-06
-5.74472e-06
4.00953e-06
-4.70486e-06
5.55911e-06
-3.78382e-06
6.9014e-06
-3.03636e-06
8.04004e-06
-2.44828e-06
8.99767e-06
-1.98862e-06
9.8011e-06
-1.62772e-06
1.04755e-05
-1.34166e-06
1.10423e-05
-1.11235e-06
1.15195e-05
-9.26373e-07
1.19216e-05
-7.73876e-07
1.22605e-05
-6.47533e-07
1.25459e-05
-5.41837e-07
1.27855e-05
-4.5258e-07
1.29859e-05
-3.76489e-07
1.3152e-05
-3.10962e-07
1.32883e-05
-2.53896e-07
1.3398e-05
-2.03547e-07
1.34838e-05
-1.58439e-07
1.35477e-05
-1.17291e-07
1.35912e-05
-7.89581e-08
1.36151e-05
-4.23918e-08
1.36198e-05
-6.59832e-09
1.36053e-05
2.93991e-08
1.35709e-05
6.6587e-08
1.35155e-05
1.06004e-07
1.34373e-05
1.48781e-07
1.33341e-05
1.96187e-07
1.32026e-05
2.49693e-07
1.30389e-05
3.11055e-07
1.28381e-05
3.82417e-07
1.25937e-05
4.66466e-07
1.22979e-05
5.66634e-07
1.19408e-05
6.87391e-07
1.15098e-05
8.34668e-07
1.09893e-05
1.01645e-06
1.03595e-05
1.24362e-06
9.59573e-06
1.53114e-06
8.66833e-06
1.8995e-06
7.54366e-06
2.37625e-06
6.1898e-06
2.99631e-06
4.59198e-06
3.79762e-06
2.78783e-06
4.8017e-06
9.35994e-07
5.95583e-06
-5.71495e-07
7.00038e-06
-1.03835e-06
7.18156e-06
4.52968e-06
-9.1317e-07
-3.34009e-06
-1.34224e-06
-6.34885e-06
-9.38596e-07
-7.06863e-06
1.78628e-08
-6.70118e-06
1.23327e-06
-5.92027e-06
2.50825e-06
-5.05881e-06
3.7301e-06
-4.2582e-06
4.84616e-06
-3.56434e-06
5.83868e-06
-2.98114e-06
6.70792e-06
-2.49695e-06
7.46236e-06
-2.09611e-06
8.1136e-06
-1.76359e-06
8.67371e-06
-1.48648e-06
9.15405e-06
-1.25421e-06
9.56482e-06
-1.0583e-06
9.91493e-06
-8.91948e-07
1.0212e-05
-7.49685e-07
1.04626e-05
-6.27087e-07
1.06722e-05
-5.20516e-07
1.08452e-05
-4.26938e-07
1.09855e-05
-3.43781e-07
1.10958e-05
-2.68817e-07
1.11786e-05
-2.00078e-07
1.12355e-05
-1.3578e-07
1.12673e-05
-7.42689e-08
1.12747e-05
-1.39606e-08
1.12574e-05
4.67052e-08
1.12147e-05
1.09311e-07
1.11451e-05
1.7552e-07
1.10468e-05
2.47126e-07
1.09169e-05
3.26131e-07
1.07517e-05
4.14822e-07
1.05469e-05
5.15885e-07
1.02968e-05
6.32534e-07
9.99455e-06
7.68698e-07
9.63193e-06
9.29254e-07
9.19899e-06
1.12033e-06
8.68396e-06
1.3497e-06
8.07313e-06
1.62727e-06
7.35115e-06
1.9656e-06
6.50191e-06
2.38038e-06
5.51103e-06
2.89037e-06
4.37124e-06
3.51604e-06
3.093e-06
4.27456e-06
1.72376e-06
5.16686e-06
3.78436e-07
6.14703e-06
-7.27454e-07
7.06172e-06
-1.26702e-06
7.53995e-06
-9.16199e-07
6.83073e-06
3.61348e-06
-6.65081e-07
-2.67501e-06
-1.29849e-06
-5.71544e-06
-1.42097e-06
-6.94615e-06
-1.04768e-06
-7.07447e-06
-3.33051e-07
-6.6349e-06
5.654e-07
-5.95726e-06
1.52951e-06
-5.22232e-06
2.48349e-06
-4.51831e-06
3.38422e-06
-3.88187e-06
4.21042e-06
-3.32315e-06
4.95418e-06
-2.83987e-06
5.61525e-06
-2.42466e-06
6.19749e-06
-2.06872e-06
6.70667e-06
-1.76339e-06
7.14923e-06
-1.50087e-06
7.53162e-06
-1.27433e-06
7.85988e-06
-1.07795e-06
8.1395e-06
-9.06706e-07
8.3753e-06
-7.56321e-07
8.57145e-06
-6.23086e-07
8.73142e-06
-5.03756e-07
8.85806e-06
-3.95453e-07
8.95355e-06
-2.95573e-07
9.01949e-06
-2.01719e-07
9.05686e-06
-1.11632e-07
9.06603e-06
-2.31306e-08
9.04679e-06
6.59461e-08
8.9983e-06
1.57796e-07
8.9191e-06
2.54719e-07
8.80705e-06
3.59181e-07
8.65928e-06
4.739e-07
8.47216e-06
6.01935e-07
8.24125e-06
7.46801e-07
7.96117e-06
9.1261e-07
7.62564e-06
1.10423e-06
7.22739e-06
1.3275e-06
6.75832e-06
1.58941e-06
6.20966e-06
1.89836e-06
5.57264e-06
2.26429e-06
4.83962e-06
2.69862e-06
4.00635e-06
3.21365e-06
3.07585e-06
3.82087e-06
2.06506e-06
4.52683e-06
1.01493e-06
5.32469e-06
4.14293e-09
6.17764e-06
-8.38535e-07
6.9897e-06
-1.33295e-06
7.55613e-06
-1.29461e-06
7.50161e-06
-6.85401e-07
6.22152e-06
2.92808e-06
-4.71243e-07
-2.20377e-06
-1.10143e-06
-5.08525e-06
-1.47184e-06
-6.57575e-06
-1.47577e-06
-7.07053e-06
-1.15894e-06
-6.95173e-06
-6.16246e-07
-6.49996e-06
5.87405e-08
-5.8973e-06
7.9226e-07
-5.25183e-06
1.53279e-06
-4.6224e-06
2.24738e-06
-4.03774e-06
2.91675e-06
-3.50923e-06
3.53095e-06
-3.03887e-06
4.08612e-06
-2.62388e-06
4.5821e-06
-2.25937e-06
5.02092e-06
-1.93969e-06
5.40577e-06
-1.65918e-06
5.74032e-06
-1.4125e-06
6.02835e-06
-1.19473e-06
6.27343e-06
-1.0014e-06
6.47884e-06
-8.285e-07
6.64744e-06
-6.72353e-07
6.7816e-06
-5.2961e-07
6.88319e-06
-3.97165e-07
6.95357e-06
-2.72098e-07
6.99355e-06
-1.51613e-07
7.0034e-06
-3.29825e-08
6.98284e-06
8.65121e-08
6.93099e-06
2.0964e-07
6.84642e-06
3.39287e-07
6.72708e-06
4.78523e-07
6.5703e-06
6.30681e-07
6.37279e-06
7.99448e-07
6.13063e-06
9.88957e-07
5.83934e-06
1.2039e-06
5.49393e-06
1.44964e-06
5.08914e-06
1.7323e-06
4.61972e-06
2.05882e-06
4.08117e-06
2.43692e-06
3.47066e-06
2.8748e-06
2.78885e-06
3.38043e-06
2.04249e-06
3.96001e-06
1.24843e-06
4.61493e-06
4.39058e-07
5.3362e-06
-3.31163e-07
6.09491e-06
-9.80201e-07
6.82668e-06
-1.39916e-06
7.40867e-06
-1.47318e-06
7.63015e-06
-1.1379e-06
7.16633e-06
-4.97036e-07
5.58066e-06
2.43105e-06
-3.40409e-07
-1.86336e-06
-9.03985e-07
-4.52167e-06
-1.36837e-06
-6.11137e-06
-1.59203e-06
-6.84687e-06
-1.55642e-06
-6.98733e-06
-1.30348e-06
-6.7529e-06
-8.94413e-07
-6.30637e-06
-3.88191e-07
-5.75805e-06
1.67032e-07
-5.17763e-06
7.35527e-07
-4.60624e-06
1.2926e-06
-4.0663e-06
1.82225e-06
-3.56852e-06
2.31491e-06
-3.11655e-06
2.76552e-06
-2.70998e-06
3.17205e-06
-2.34622e-06
3.53442e-06
-2.02156e-06
3.85378e-06
-1.73185e-06
4.13188e-06
-1.47283e-06
4.37081e-06
-1.24033e-06
4.57265e-06
-1.03034e-06
4.73937e-06
-8.39076e-07
4.87268e-06
-6.62921e-07
4.97396e-06
-4.9844e-07
5.04418e-06
-3.42323e-07
5.08392e-06
-1.91352e-07
5.09329e-06
-4.23495e-08
5.07193e-06
1.07871e-07
5.01901e-06
2.62558e-07
4.93322e-06
4.25079e-07
4.81276e-06
5.98982e-07
4.65538e-06
7.88059e-07
4.45842e-06
9.96413e-07
4.21886e-06
1.22852e-06
3.93349e-06
1.48927e-06
3.59911e-06
1.78402e-06
3.21289e-06
2.11852e-06
2.77291e-06
2.4988e-06
2.279e-06
2.93082e-06
1.73399e-06
3.4198e-06
1.14548e-06
3.96894e-06
5.28262e-07
4.57724e-06
-9.26502e-08
5.23584e-06
-6.78683e-07
5.92223e-06
-1.17527e-06
6.5915e-06
-1.5128e-06
7.16421e-06
-1.61585e-06
7.51172e-06
-1.42831e-06
7.44261e-06
-9.61656e-07
6.69967e-06
-3.67094e-07
4.9861e-06
2.06395e-06
-2.55579e-07
-1.60778e-06
-7.43299e-07
-4.03395e-06
-1.22617e-06
-5.62849e-06
-1.56734e-06
-6.5057e-06
-1.71764e-06
-6.83704e-06
-1.68284e-06
-6.7877e-06
-1.49547e-06
-6.49373e-06
-1.1963e-06
-6.05723e-06
-8.24174e-07
-5.54975e-06
-4.11714e-07
-5.0187e-06
1.58018e-08
-4.49382e-06
4.399e-07
-3.99262e-06
8.47761e-07
-3.52441e-06
1.23097e-06
-3.09319e-06
1.58439e-06
-2.69964e-06
1.90522e-06
-2.34239e-06
2.19227e-06
-2.01891e-06
2.44542e-06
-1.72598e-06
2.66518e-06
-1.46009e-06
2.85241e-06
-1.21757e-06
3.00807e-06
-9.94739e-07
3.13311e-06
-7.87963e-07
3.22832e-06
-5.93648e-07
3.29425e-06
-4.08256e-07
3.33118e-06
-2.2828e-07
3.33905e-06
-5.0217e-08
3.31745e-06
1.29465e-07
3.26564e-06
3.14369e-07
3.18251e-06
5.08208e-07
3.06665e-06
7.14847e-07
2.91636e-06
9.38347e-07
2.72978e-06
1.18299e-06
2.50501e-06
1.45329e-06
2.24031e-06
1.75398e-06
1.93439e-06
2.08993e-06
1.58692e-06
2.46599e-06
1.19909e-06
2.88663e-06
7.7454e-07
3.35537e-06
3.20523e-07
3.87382e-06
-1.50595e-07
4.44006e-06
-6.19572e-07
5.04621e-06
-1.05853e-06
5.6748e-06
-1.4298e-06
6.29351e-06
-1.68669e-06
6.84839e-06
-1.77821e-06
7.25573e-06
-1.66103e-06
7.39453e-06
-1.32186e-06
7.10344e-06
-8.11298e-07
6.18911e-06
-2.8169e-07
4.45649e-06
1.78226e-06
-2.00042e-07
-1.40774e-06
-6.20612e-07
-3.61338e-06
-1.08911e-06
-5.16e-06
-1.48705e-06
-6.10775e-06
-1.75483e-06
-6.56926e-06
-1.87683e-06
-6.66571e-06
-1.86419e-06
-6.50636e-06
-1.74104e-06
-6.18039e-06
-1.53525e-06
-5.75553e-06
-1.27336e-06
-5.28059e-06
-9.78091e-07
-4.78909e-06
-6.67654e-07
-4.30306e-06
-3.55946e-07
-3.83611e-06
-5.31177e-08
-3.39602e-06
2.33715e-07
-2.98647e-06
4.99791e-07
-2.60847e-06
7.42107e-07
-2.26122e-06
9.58921e-07
-1.9428e-06
1.14937e-06
-1.65053e-06
1.31314e-06
-1.38134e-06
1.45026e-06
-1.13186e-06
1.56091e-06
-8.9861e-07
1.64527e-06
-6.78017e-07
1.70348e-06
-4.66465e-07
1.73551e-06
-2.60304e-07
1.74113e-06
-5.58423e-08
1.71994e-06
1.50662e-07
1.67128e-06
3.63022e-07
1.59434e-06
5.85145e-07
1.48815e-06
8.21043e-07
1.35165e-06
1.07484e-06
1.18387e-06
1.35077e-06
9.84048e-07
1.65311e-06
7.51901e-07
1.98613e-06
4.87983e-07
2.35385e-06
1.94144e-07
2.75983e-06
-1.25846e-07
3.20662e-06
-4.6551e-07
3.69504e-06
-8.14718e-07
4.22303e-06
-1.15863e-06
4.78397e-06
-1.47672e-06
5.3643e-06
-1.74223e-06
5.94031e-06
-1.9227e-06
6.47397e-06
-1.98259e-06
6.90829e-06
-1.88955e-06
7.16269e-06
-1.62567e-06
7.13065e-06
-1.20463e-06
6.6824e-06
-6.92571e-07
5.67705e-06
-2.25001e-07
3.98892e-06
1.55726e-06
-1.62704e-07
-1.24504e-06
-5.28682e-07
-3.2474e-06
-9.71028e-07
-4.71765e-06
-1.39172e-06
-5.68706e-06
-1.73112e-06
-6.22987e-06
-1.96264e-06
-6.43418e-06
-2.08313e-06
-6.38587e-06
-2.10348e-06
-6.16004e-06
-2.04133e-06
-5.81767e-06
-1.91624e-06
-5.40568e-06
-1.74676e-06
-4.95857e-06
-1.54911e-06
-4.50071e-06
-1.33663e-06
-4.0486e-06
-1.11985e-06
-3.61279e-06
-9.06799e-07
-3.19952e-06
-7.03401e-07
-2.81187e-06
-5.13891e-07
-2.45073e-06
-3.41204e-07
-2.11548e-06
-1.87307e-07
-1.80443e-06
-5.34752e-08
-1.51517e-06
5.94903e-08
-1.24483e-06
1.51083e-07
-9.90203e-07
2.2096e-07
-7.47894e-07
2.6884e-07
-5.14345e-07
2.94433e-07
-2.85897e-07
2.97398e-07
-5.88065e-08
2.77318e-07
1.70741e-07
2.3371e-07
4.0663e-07
1.66051e-07
6.52804e-07
7.38384e-08
9.13256e-07
-4.3314e-08
1.19199e-06
-1.85536e-07
1.49299e-06
-3.52507e-07
1.82008e-06
-5.43195e-07
2.17681e-06
-7.5551e-07
2.56617e-06
-9.85874e-07
2.99019e-06
-1.22869e-06
3.44943e-06
-1.47572e-06
3.94207e-06
-1.71547e-06
4.46277e-06
-1.93258e-06
5.00109e-06
-2.10762e-06
5.53934e-06
-2.2174e-06
6.05008e-06
-2.23656e-06
6.49313e-06
-2.14105e-06
6.81277e-06
-1.91423e-06
6.93588e-06
-1.55618e-06
6.77259e-06
-1.09542e-06
6.22164e-06
-6.00629e-07
5.18226e-06
-1.86155e-07
3.57445e-06
1.37111e-06
-1.36841e-07
-1.1082e-06
-4.59876e-07
-2.92437e-06
-8.73981e-07
-4.30354e-06
-1.29935e-06
-5.26169e-06
-1.68089e-06
-5.84833e-06
-1.98754e-06
-6.12753e-06
-2.20739e-06
-6.16602e-06
-2.34172e-06
-6.02571e-06
-2.39966e-06
-5.75974e-06
-2.39411e-06
-5.41123e-06
-2.33899e-06
-5.01368e-06
-2.24759e-06
-4.59211e-06
-2.13167e-06
-4.16452e-06
-2.00117e-06
-3.7433e-06
-1.86414e-06
-3.33655e-06
-1.72695e-06
-2.94905e-06
-1.59451e-06
-2.58318e-06
-1.4705e-06
-2.23949e-06
-1.35768e-06
-1.91726e-06
-1.25802e-06
-1.61482e-06
-1.17299e-06
-1.32986e-06
-1.10364e-06
-1.05955e-06
-1.05076e-06
-8.00773e-07
-1.01497e-06
-5.50144e-07
-9.96747e-07
-3.04115e-07
-9.9654e-07
-5.90133e-08
-1.01472e-06
1.88923e-07
-1.05161e-06
4.43514e-07
-1.10741e-06
7.08604e-07
-1.18217e-06
9.88017e-07
-1.27567e-06
1.28549e-06
-1.38726e-06
1.60459e-06
-1.51572e-06
1.94854e-06
-1.65895e-06
2.32004e-06
-1.81369e-06
2.72091e-06
-1.9752e-06
3.15171e-06
-2.13682e-06
3.61105e-06
-2.28957e-06
4.09482e-06
-2.42183e-06
4.59504e-06
-2.51922e-06
5.09848e-06
-2.56485e-06
5.58498e-06
-2.5403e-06
6.02553e-06
-2.42763e-06
6.38046e-06
-2.21294e-06
6.59809e-06
-1.89166e-06
6.6146e-06
-1.47544e-06
6.35637e-06
-9.99655e-07
5.74586e-06
-5.29191e-07
4.7118e-06
-1.58511e-07
3.20377e-06
1.21259e-06
-1.18419e-07
-9.89777e-07
-4.0806e-07
-2.63473e-06
-7.959e-07
-3.9157e-06
-1.21697e-06
-4.84062e-06
-1.62224e-06
-5.44307e-06
-1.97984e-06
-5.76993e-06
-2.27298e-06
-5.87288e-06
-2.49638e-06
-5.80231e-06
-2.6526e-06
-5.60352e-06
-2.74882e-06
-5.31501e-06
-2.79451e-06
-4.968e-06
-2.79971e-06
-4.58691e-06
-2.77408e-06
-4.19015e-06
-2.7263e-06
-3.79108e-06
-2.66386e-06
-3.39899e-06
-2.593e-06
-3.01991e-06
-2.5188e-06
-2.65738e-06
-2.44531e-06
-2.31298e-06
-2.3757e-06
-1.98686e-06
-2.31246e-06
-1.67807e-06
-2.25747e-06
-1.38485e-06
-2.21219e-06
-1.10483e-06
-2.17774e-06
-8.35222e-07
-2.15497e-06
-5.72912e-07
-2.14453e-06
-3.14554e-07
-2.1469e-06
-5.66484e-08
-2.16238e-06
2.04405e-07
-2.19111e-06
4.72249e-07
-2.23302e-06
7.50512e-07
-2.28774e-06
1.04273e-06
-2.35452e-06
1.35227e-06
-2.43208e-06
1.68216e-06
-2.51849e-06
2.03495e-06
-2.61087e-06
2.41242e-06
-2.70525e-06
2.81529e-06
-2.79623e-06
3.24269e-06
-2.87678e-06
3.6916e-06
-2.93802e-06
4.15606e-06
-2.96917e-06
4.62619e-06
-2.95774e-06
5.08705e-06
-2.89015e-06
5.51739e-06
-2.753e-06
5.88838e-06
-2.53518e-06
6.16265e-06
-2.23105e-06
6.29395e-06
-1.8446e-06
6.22815e-06
-1.39433e-06
5.90609e-06
-9.17591e-07
5.26912e-06
-4.72974e-07
4.26718e-06
-1.38101e-07
2.8689e-06
1.07449e-06
-1.04983e-07
-8.84794e-07
-3.68707e-07
-2.371e-06
-7.33657e-07
-3.55075e-06
-1.1465e-06
-4.42777e-06
-1.56425e-06
-5.02532e-06
-1.95612e-06
-5.37806e-06
-2.30297e-06
-5.52603e-06
-2.59531e-06
-5.50997e-06
-2.83085e-06
-5.36798e-06
-3.01218e-06
-5.13368e-06
-3.14479e-06
-4.83539e-06
-3.2356e-06
-4.49609e-06
-3.29198e-06
-4.13377e-06
-3.32102e-06
-3.76203e-06
-3.32924e-06
-3.39077e-06
-3.32233e-06
-3.02682e-06
-3.30518e-06
-2.67453e-06
-3.28185e-06
-2.33631e-06
-3.25568e-06
-2.01303e-06
-3.22938e-06
-1.70438e-06
-3.20509e-06
-1.40913e-06
-3.18452e-06
-1.1254e-06
-3.16899e-06
-8.50753e-07
-3.1595e-06
-5.82399e-07
-3.15679e-06
-3.1727e-07
-3.16132e-06
-5.21159e-08
-3.17333e-06
2.16414e-07
-3.19278e-06
4.91699e-07
-3.21933e-06
7.77062e-07
-3.25227e-06
1.07567e-06
-3.29044e-06
1.39044e-06
-3.33209e-06
1.72381e-06
-3.37479e-06
2.07764e-06
-3.41522e-06
2.45285e-06
-3.44903e-06
2.8491e-06
-3.47069e-06
3.26434e-06
-3.47335e-06
3.69426e-06
-3.44885e-06
4.13156e-06
-3.38786e-06
4.56519e-06
-3.28028e-06
4.97947e-06
-3.11606e-06
5.35317e-06
-2.88656e-06
5.65887e-06
-2.58644e-06
5.86253e-06
-2.21637e-06
5.92389e-06
-1.78611e-06
5.79789e-06
-1.31768e-06
5.43766e-06
-8.47748e-07
4.79919e-06
-4.28038e-07
3.84747e-06
-1.22536e-07
2.56339e-06
9.51956e-07
-9.49931e-08
-7.89801e-07
-3.38561e-07
-2.12743e-06
-6.84212e-07
-3.2051e-06
-1.08758e-06
-4.0244e-06
-1.51108e-06
-4.60182e-06
-1.92587e-06
-4.96327e-06
-2.31199e-06
-5.13991e-06
-2.6574e-06
-5.16456e-06
-2.95639e-06
-5.06898e-06
-3.20799e-06
-4.88208e-06
-3.41436e-06
-4.62902e-06
-3.57961e-06
-4.33084e-06
-3.70885e-06
-4.00453e-06
-3.8075e-06
-3.66339e-06
-3.88085e-06
-3.31743e-06
-3.93382e-06
-2.97385e-06
-3.97082e-06
-2.63753e-06
-3.99567e-06
-2.31145e-06
-4.01164e-06
-1.99705e-06
-4.02146e-06
-1.69456e-06
-4.02737e-06
-1.40323e-06
-4.03116e-06
-1.1216e-06
-4.03426e-06
-8.47654e-07
-4.03773e-06
-5.78927e-07
-4.04233e-06
-3.12678e-07
-4.04848e-06
-4.59637e-08
-4.05632e-06
2.24259e-07
-4.06567e-06
5.01042e-07
-4.07595e-06
7.87345e-07
-4.0862e-06
1.08592e-06
-4.09495e-06
1.39919e-06
-4.10016e-06
1.72902e-06
-4.09911e-06
2.0766e-06
-4.08831e-06
2.44205e-06
-4.06339e-06
2.82418e-06
-4.01904e-06
3.22e-06
-3.94905e-06
3.62427e-06
-3.84638e-06
4.02889e-06
-3.70348e-06
4.42229e-06
-3.51281e-06
4.78879e-06
-3.26773e-06
5.10809e-06
-2.96375e-06
5.35489e-06
-2.60022e-06
5.499e-06
-2.1824e-06
5.50607e-06
-1.72365e-06
5.33914e-06
-1.24742e-06
4.96143e-06
-7.88307e-07
4.34008e-06
-3.91569e-07
3.45073e-06
-1.10342e-07
2.28217e-06
8.41614e-07
-8.74529e-08
-7.02349e-07
-3.15287e-07
-1.8996e-06
-6.4496e-07
-2.87543e-06
-1.03896e-06
-3.6304e-06
-1.46432e-06
-4.17646e-06
-1.89435e-06
-4.53324e-06
-2.30918e-06
-4.72508e-06
-2.69532e-06
-4.77842e-06
-3.04477e-06
-4.71953e-06
-3.35385e-06
-4.57301e-06
-3.62205e-06
-4.36082e-06
-3.85107e-06
-4.10182e-06
-4.04394e-06
-3.81167e-06
-4.20441e-06
-3.50292e-06
-4.33651e-06
-3.18532e-06
-4.44424e-06
-2.86612e-06
-4.53135e-06
-2.55042e-06
-4.60125e-06
-2.24155e-06
-4.65696e-06
-1.94135e-06
-4.70106e-06
-1.65045e-06
-4.73575e-06
-1.36854e-06
-4.76281e-06
-1.09455e-06
-4.78364e-06
-8.26817e-07
-4.79932e-06
-5.63252e-07
-4.81055e-06
-3.01451e-07
-4.8177e-06
-3.88087e-08
-4.82081e-06
2.27372e-07
-4.81955e-06
4.9978e-07
-4.81319e-06
7.80983e-07
-4.80057e-06
1.0733e-06
-4.78004e-06
1.37865e-06
-4.74941e-06
1.69839e-06
-4.70588e-06
2.03307e-06
-4.64602e-06
2.38219e-06
-4.5657e-06
2.74385e-06
-4.46013e-06
3.11444e-06
-4.324e-06
3.48814e-06
-4.15161e-06
3.85651e-06
-3.93734e-06
4.20801e-06
-3.67615e-06
4.5276e-06
-3.36446e-06
4.79641e-06
-3.00129e-06
4.99172e-06
-2.5896e-06
5.08731e-06
-2.13785e-06
5.05431e-06
-1.66148e-06
4.86278e-06
-1.18407e-06
4.48402e-06
-7.37599e-07
3.89361e-06
-3.61584e-07
3.07472e-06
-1.00587e-07
2.02117e-06
7.41027e-07
-8.16953e-08
-6.20653e-07
-2.97202e-07
-1.68409e-06
-6.13789e-07
-2.55884e-06
-9.99187e-07
-3.245e-06
-1.42423e-06
-3.75142e-06
-1.86433e-06
-4.09313e-06
-2.30017e-06
-4.28925e-06
-2.71754e-06
-4.36104e-06
-3.10694e-06
-4.33014e-06
-3.4627e-06
-4.21724e-06
-3.78224e-06
-4.04128e-06
-4.06521e-06
-3.81885e-06
-4.31283e-06
-3.56405e-06
-4.52732e-06
-3.28843e-06
-4.71146e-06
-3.00119e-06
-4.86825e-06
-2.70932e-06
-5.00074e-06
-2.41794e-06
-5.1118e-06
-2.13049e-06
-5.20407e-06
-1.84907e-06
-5.27991e-06
-1.57462e-06
-5.34131e-06
-1.30713e-06
-5.38998e-06
-1.04589e-06
-5.42723e-06
-7.89568e-07
-5.45405e-06
-5.36431e-07
-5.47108e-06
-2.84415e-07
-5.47862e-06
-3.12693e-08
-5.4766e-06
2.25346e-07
-5.46456e-06
4.87742e-07
-5.44166e-06
7.58088e-07
-5.40664e-06
1.03828e-06
-5.35777e-06
1.32978e-06
-5.29283e-06
1.63346e-06
-5.20912e-06
1.94936e-06
-5.10343e-06
2.27649e-06
-4.97206e-06
2.61248e-06
-4.81095e-06
2.95333e-06
-4.61582e-06
3.29301e-06
-4.38244e-06
3.62313e-06
-4.10704e-06
3.93262e-06
-3.78691e-06
4.20746e-06
-3.42112e-06
4.43062e-06
-3.01151e-06
4.58211e-06
-2.56374e-06
4.63955e-06
-2.08842e-06
4.579e-06
-1.60205e-06
4.3764e-06
-1.12756e-06
4.00953e-06
-6.9425e-07
3.4603e-06
-3.36684e-07
2.71715e-06
-9.26586e-08
1.77715e-06
6.48369e-07
-7.72617e-08
-5.43392e-07
-2.83082e-07
-1.47827e-06
-5.89031e-07
-2.2529e-06
-9.66847e-07
-2.86719e-06
-1.39045e-06
-3.32783e-06
-1.83716e-06
-3.64642e-06
-2.28838e-06
-3.83803e-06
-2.72969e-06
-3.91973e-06
-3.1506e-06
-3.90923e-06
-3.54405e-06
-3.82379e-06
-3.90583e-06
-3.6795e-06
-4.23394e-06
-3.49073e-06
-4.52807e-06
-3.26992e-06
-4.78906e-06
-3.02745e-06
-5.01852e-06
-2.77173e-06
-5.2185e-06
-2.50933e-06
-5.39129e-06
-2.24515e-06
-5.53919e-06
-1.9826e-06
-5.66439e-06
-1.72387e-06
-5.76891e-06
-1.47009e-06
-5.85455e-06
-1.2215e-06
-5.92279e-06
-9.77641e-07
-5.97484e-06
-7.37519e-07
-6.01157e-06
-4.99702e-07
-6.03352e-06
-2.62468e-07
-6.04088e-06
-2.3909e-08
-6.03349e-06
2.17955e-07
-6.01081e-06
4.65067e-07
-5.97193e-06
7.19211e-07
-5.91554e-06
9.81886e-07
-5.83992e-06
1.25415e-06
-5.74294e-06
1.53648e-06
-5.62209e-06
1.82852e-06
-5.47452e-06
2.12892e-06
-5.29712e-06
2.43508e-06
-5.08661e-06
2.74283e-06
-4.83984e-06
3.04623e-06
-4.55398e-06
3.33727e-06
-4.22704e-06
3.60567e-06
-3.85832e-06
3.83875e-06
-3.44913e-06
4.02143e-06
-3.00353e-06
4.13651e-06
-2.52915e-06
4.16517e-06
-2.03794e-06
4.08779e-06
-1.54678e-06
3.88524e-06
-1.07763e-06
3.54038e-06
-6.57187e-07
3.03985e-06
-3.15881e-07
2.37584e-06
-8.61485e-08
1.54741e-06
5.6222e-07
-7.38299e-08
-4.69562e-07
-2.72033e-07
-1.28007e-06
-5.69387e-07
-1.95554e-06
-9.40704e-07
-2.49587e-06
-1.36237e-06
-2.90616e-06
-1.81337e-06
-3.19542e-06
-2.27588e-06
-3.37552e-06
-2.73551e-06
-3.4601e-06
-3.18118e-06
-3.46356e-06
-3.60485e-06
-3.40012e-06
-4.00107e-06
-3.28328e-06
-4.36655e-06
-3.12525e-06
-4.69968e-06
-2.93679e-06
-5.00011e-06
-2.72701e-06
-5.26842e-06
-2.50343e-06
-5.50576e-06
-2.27199e-06
-5.71369e-06
-2.03722e-06
-5.8939e-06
-1.80239e-06
-6.04814e-06
-1.56964e-06
-6.17806e-06
-1.34017e-06
-6.28517e-06
-1.11438e-06
-6.37075e-06
-8.92058e-07
-6.43583e-06
-6.72439e-07
-6.48115e-06
-4.54391e-07
-6.50711e-06
-2.36502e-07
-6.51383e-06
-1.71942e-08
-6.50104e-06
2.05172e-07
-6.46816e-06
4.32189e-07
-6.41424e-06
6.65286e-07
-6.33796e-06
9.05611e-07
-6.23769e-06
1.15389e-06
-6.11147e-06
1.41026e-06
-5.95708e-06
1.67412e-06
-5.77208e-06
1.94393e-06
-5.55398e-06
2.21698e-06
-5.30038e-06
2.48923e-06
-5.00918e-06
2.75503e-06
-4.67892e-06
3.00701e-06
-4.30914e-06
3.2359e-06
-3.90092e-06
3.43052e-06
-3.45734e-06
3.57785e-06
-2.9842e-06
3.66336e-06
-2.49049e-06
3.67146e-06
-1.989e-06
3.58631e-06
-1.49654e-06
3.39278e-06
-1.03394e-06
3.07778e-06
-6.25591e-07
2.6315e-06
-2.98473e-07
2.04873e-06
-8.07768e-08
1.32972e-06
4.81443e-07
-7.11701e-08
-3.98392e-07
-2.63394e-07
-1.08785e-06
-5.53857e-07
-1.66508e-06
-9.19723e-07
-2.13e-06
-1.33934e-06
-2.48655e-06
-1.79307e-06
-2.74169e-06
-2.26385e-06
-2.90473e-06
-2.73746e-06
-2.9865e-06
-3.20248e-06
-2.99854e-06
-3.65018e-06
-2.95242e-06
-4.07421e-06
-2.85924e-06
-4.47024e-06
-2.72922e-06
-4.83562e-06
-2.57141e-06
-5.16901e-06
-2.39363e-06
-5.47005e-06
-2.20239e-06
-5.73912e-06
-2.00291e-06
-5.97709e-06
-1.79926e-06
-6.18508e-06
-1.59439e-06
-6.36439e-06
-1.39033e-06
-6.5163e-06
-1.18825e-06
-6.64202e-06
-9.88662e-07
-6.74261e-06
-7.91476e-07
-6.81889e-06
-5.96159e-07
-6.87145e-06
-4.01828e-07
-6.9006e-06
-2.07356e-07
-6.90632e-06
-1.14664e-08
-6.88831e-06
1.87162e-07
-6.84593e-06
3.89803e-07
-6.77821e-06
5.97571e-07
-6.68391e-06
8.11312e-07
-6.56151e-06
1.03148e-06
-6.40924e-06
1.25799e-06
-6.22522e-06
1.4901e-06
-6.0075e-06
1.7262e-06
-5.75419e-06
1.96368e-06
-5.46373e-06
2.19876e-06
-5.13502e-06
2.42632e-06
-4.7678e-06
2.63979e-06
-4.36299e-06
2.83108e-06
-3.92308e-06
2.99061e-06
-3.45262e-06
3.1074e-06
-2.95867e-06
3.16941e-06
-2.4512e-06
3.164e-06
-1.94342e-06
3.07852e-06
-1.45186e-06
2.90122e-06
-9.96213e-07
2.62213e-06
-5.98855e-07
2.23414e-06
-2.83961e-07
1.73383e-06
-7.63493e-08
1.12211e-06
4.05094e-07
-6.91166e-08
-3.29275e-07
-2.56676e-07
-9.00288e-07
-5.41673e-07
-1.38008e-06
-9.03064e-07
-1.76861e-06
-1.32073e-06
-2.06888e-06
-1.77617e-06
-2.28625e-06
-2.25299e-06
-2.42791e-06
-2.73719e-06
-2.50231e-06
-3.21719e-06
-2.51853e-06
-3.6838e-06
-2.48582e-06
-4.12997e-06
-2.41307e-06
-4.55061e-06
-2.30858e-06
-4.94221e-06
-2.17981e-06
-5.30261e-06
-2.03323e-06
-5.6307e-06
-1.87429e-06
-5.92616e-06
-1.70745e-06
-6.18924e-06
-1.53618e-06
-6.42058e-06
-1.36306e-06
-6.62103e-06
-1.18989e-06
-6.79151e-06
-1.01777e-06
-6.93296e-06
-8.47212e-07
-7.0462e-06
-6.78244e-07
-7.13186e-06
-5.10495e-07
-7.19039e-06
-3.43298e-07
-7.22197e-06
-1.75776e-07
-7.22651e-06
-6.92819e-09
-7.20363e-06
1.64282e-07
-7.15267e-06
3.38841e-07
-7.07269e-06
5.17593e-07
-6.96252e-06
7.01139e-07
-6.82077e-06
8.8973e-07
-6.64592e-06
1.08315e-06
-6.43643e-06
1.2806e-06
-6.19078e-06
1.48055e-06
-5.90772e-06
1.68062e-06
-5.58642e-06
1.87746e-06
-5.2267e-06
2.0666e-06
-4.82932e-06
2.24242e-06
-4.39635e-06
2.39811e-06
-3.93145e-06
2.52571e-06
-3.44029e-06
2.61624e-06
-2.93088e-06
2.66e-06
-2.41382e-06
2.64694e-06
-1.9025e-06
2.56721e-06
-1.41307e-06
2.41179e-06
-9.64198e-07
2.17326e-06
-5.76534e-07
1.84648e-06
-2.71987e-07
1.42928e-06
-7.27299e-08
9.22848e-07
3.32364e-07
-6.75496e-08
-2.61726e-07
-2.51522e-07
-7.16316e-07
-5.32257e-07
-1.09935e-06
-8.90064e-07
-1.41081e-06
-1.30601e-06
-1.65294e-06
-1.76248e-06
-1.82977e-06
-2.24368e-06
-1.94671e-06
-2.7358e-06
-2.01018e-06
-3.22723e-06
-2.02711e-06
-3.70844e-06
-2.00461e-06
-4.17191e-06
-1.94959e-06
-4.61194e-06
-1.86856e-06
-5.02437e-06
-1.76737e-06
-5.4064e-06
-1.6512e-06
-5.75627e-06
-1.52442e-06
-6.07309e-06
-1.39063e-06
-6.35661e-06
-1.25266e-06
-6.60701e-06
-1.11266e-06
-6.82476e-06
-9.72138e-07
-7.01047e-06
-8.32048e-07
-7.16482e-06
-6.92864e-07
-7.2884e-06
-5.54663e-07
-7.38169e-06
-4.17205e-07
-7.44499e-06
-2.80003e-07
-7.47836e-06
-1.424e-07
-7.48165e-06
-3.64124e-09
-7.45443e-06
1.37057e-07
-7.39602e-06
2.80433e-07
-7.30552e-06
4.27099e-07
-7.18185e-06
5.77464e-07
-7.02376e-06
7.31643e-07
-6.82997e-06
8.89363e-07
-6.59924e-06
1.04987e-06
-6.33049e-06
1.21181e-06
-6.02302e-06
1.37315e-06
-5.67663e-06
1.53107e-06
-5.29193e-06
1.6819e-06
-4.87056e-06
1.82104e-06
-4.41547e-06
1.94303e-06
-3.93128e-06
2.04152e-06
-3.4245e-06
2.10945e-06
-2.9038e-06
2.1393e-06
-2.38022e-06
2.12336e-06
-1.86719e-06
2.05418e-06
-1.38044e-06
1.92504e-06
-9.37721e-07
1.73054e-06
-5.58305e-07
1.46706e-06
-2.623e-07
1.13328e-06
-6.98232e-08
7.30371e-07
2.62541e-07
-6.63826e-08
-1.95343e-07
-2.47666e-07
-5.35032e-07
-5.25175e-07
-8.21838e-07
-8.80214e-07
-1.05577e-06
-1.29473e-06
-1.23843e-06
-1.75181e-06
-1.37268e-06
-2.2361e-06
-1.46242e-06
-2.73403e-06
-1.51226e-06
-3.23393e-06
-1.5272e-06
-3.7261e-06
-1.51244e-06
-4.20267e-06
-1.47302e-06
-4.65749e-06
-1.41374e-06
-5.08593e-06
-1.33894e-06
-5.48465e-06
-1.25248e-06
-5.85143e-06
-1.15764e-06
-6.18491e-06
-1.05714e-06
-6.48442e-06
-9.53149e-07
-6.74977e-06
-8.47305e-07
-6.98113e-06
-7.40782e-07
-7.17884e-06
-6.34337e-07
-7.34334e-06
-5.28364e-07
-7.47505e-06
-4.22956e-07
-7.57429e-06
-3.17963e-07
-7.64124e-06
-2.13052e-07
-7.67589e-06
-1.07755e-07
-7.67799e-06
-1.53481e-09
-7.6471e-06
1.06168e-07
-7.58254e-06
2.15874e-07
-7.48345e-06
3.28005e-07
-7.34881e-06
4.42823e-07
-7.17753e-06
5.60363e-07
-6.96853e-06
6.80361e-07
-6.72084e-06
8.02178e-07
-6.43376e-06
9.24733e-07
-6.10704e-06
1.04642e-06
-5.74102e-06
1.16506e-06
-5.33695e-06
1.27782e-06
-4.89713e-06
1.38123e-06
-4.42527e-06
1.47116e-06
-3.92664e-06
1.54289e-06
-3.4084e-06
1.59121e-06
-2.87971e-06
1.61061e-06
-2.35184e-06
1.59549e-06
-1.8382e-06
1.54053e-06
-1.35413e-06
1.44098e-06
-9.16656e-07
1.29306e-06
-5.43942e-07
1.09435e-06
-2.54722e-07
8.44059e-07
-6.75623e-08
5.43211e-07
1.94979e-07
-6.55547e-08
-1.29788e-07
-2.44922e-07
-3.55665e-07
-5.20113e-07
-5.46647e-07
-8.73133e-07
-7.02748e-07
-1.28656e-06
-8.25002e-07
-1.74398e-06
-9.1526e-07
-2.23038e-06
-9.76028e-07
-2.73235e-06
-1.01029e-06
-3.23824e-06
-1.02131e-06
-3.73823e-06
-1.01245e-06
-4.2242e-06
-9.87049e-07
-4.6897e-06
-9.48239e-07
-5.12974e-06
-8.98901e-07
-5.54063e-06
-8.41589e-07
-5.91978e-06
-7.78493e-07
-6.26549e-06
-7.11434e-07
-6.57677e-06
-6.4187e-07
-6.85316e-06
-5.70915e-07
-7.09457e-06
-4.9937e-07
-7.30115e-06
-4.27758e-07
-7.47315e-06
-3.56359e-07
-7.61085e-06
-2.85253e-07
-7.71446e-06
-2.14356e-07
-7.78406e-06
-1.43458e-07
-7.81955e-06
-7.2262e-08
-7.82066e-06
-4.228e-10
-7.78691e-06
7.24168e-08
-7.71762e-06
1.46589e-07
-7.61197e-06
2.22355e-07
-7.46902e-06
2.99869e-07
-7.28779e-06
3.79128e-07
-7.06735e-06
4.59927e-07
-6.80698e-06
5.41808e-07
-6.50626e-06
6.24015e-07
-6.16528e-06
7.05443e-07
-5.78483e-06
7.846e-07
-5.36659e-06
8.59579e-07
-4.9134e-06
9.28043e-07
-4.42948e-06
9.87236e-07
-3.92061e-06
1.03403e-06
-3.39438e-06
1.06498e-06
-2.86027e-06
1.07649e-06
-2.32971e-06
1.06493e-06
-1.81603e-06
1.02686e-06
-1.33429e-06
9.59235e-07
-9.00917e-07
8.59687e-07
-5.33286e-07
7.2672e-07
-2.49131e-07
5.59904e-07
-6.59012e-08
3.59981e-07
1.29077e-07
-6.50241e-08
-6.47642e-08
-2.43159e-07
-1.7753e-07
-5.16852e-07
-2.72954e-07
-8.68554e-07
-3.51046e-07
-1.28124e-06
-4.12314e-07
-1.73884e-06
-4.57663e-07
-2.22654e-06
-4.88324e-07
-2.73107e-06
-5.05761e-07
-3.2408e-06
-5.11582e-07
-3.7458e-06
-5.07451e-07
-4.23784e-06
-4.9501e-07
-4.71026e-06
-4.75819e-07
-5.15785e-06
-4.5131e-07
-5.57668e-06
-4.22754e-07
-5.96393e-06
-3.91247e-07
-6.31766e-06
-3.57703e-07
-6.63668e-06
-3.22853e-07
-6.92033e-06
-2.87261e-07
-7.16837e-06
-2.51332e-07
-7.38079e-06
-2.15333e-07
-7.55774e-06
-1.7941e-07
-7.69939e-06
-1.43607e-07
-7.80586e-06
-1.07888e-07
-7.87716e-06
-7.21519e-08
-7.91317e-06
-3.62548e-08
-7.91357e-06
-2.71163e-11
-7.87785e-06
3.67038e-08
-7.80537e-06
7.41e-08
-7.6953e-06
1.12286e-07
-7.54676e-06
1.51333e-07
-7.35886e-06
1.91231e-07
-7.1308e-06
2.31868e-07
-6.862e-06
2.73006e-07
-6.55224e-06
3.14257e-07