/*--------------------------------*- C++ -*----------------------------------*\
  =========                 |
  \\      /  F ield         | OpenFOAM: The Open Source CFD Toolbox
   \\    /   O peration     | Website:  https://openfoam.org
    \\  /    A nd           | Version:  7
     \\/     M anipulation  |
\*---------------------------------------------------------------------------*/
FoamFile
{
    version     2.0;
    format      ascii;
    class       surfaceScalarField;
    location    "0.0728";
    object      phi;
}
// * * * * * * * * * * * * * * * * * * * * * * * * * * * * * * * * * * * * * //

dimensions      [0 3 -1 0 0 0 0];

internalField   nonuniform List<scalar> 
4900
(
5.45461e-06
-5.45462e-06
9.95309e-06
-4.49849e-06
1.26939e-05
-2.7408e-06
1.44122e-05
-1.71832e-06
1.55285e-05
-1.11632e-06
1.62818e-05
-7.53302e-07
1.68131e-05
-5.3125e-07
1.72038e-05
-3.90737e-07
1.75013e-05
-2.97445e-07
1.77337e-05
-2.32435e-07
1.79189e-05
-1.85179e-07
1.80685e-05
-1.49614e-07
1.81906e-05
-1.2209e-07
1.82909e-05
-1.0031e-07
1.83737e-05
-8.27604e-08
1.84421e-05
-6.8403e-08
1.84986e-05
-5.6499e-08
1.85451e-05
-4.65048e-08
1.85831e-05
-3.80088e-08
1.86138e-05
-3.06904e-08
1.86381e-05
-2.42928e-08
1.86567e-05
-1.86049e-08
1.86701e-05
-1.34481e-08
1.86788e-05
-8.66635e-09
1.86829e-05
-4.11926e-09
1.86826e-05
3.27189e-10
1.86778e-05
4.79596e-09
1.86684e-05
9.42145e-09
1.8654e-05
1.43382e-08
1.86343e-05
1.96964e-08
1.86086e-05
2.56671e-08
1.85762e-05
3.24523e-08
1.85359e-05
4.02987e-08
1.84864e-05
4.95164e-08
1.84259e-05
6.05066e-08
1.83521e-05
7.38029e-08
1.82619e-05
9.01352e-08
1.81514e-05
1.10532e-07
1.80149e-05
1.36494e-07
1.78446e-05
1.70294e-07
1.76291e-05
2.15535e-07
1.73509e-05
2.78208e-07
1.69821e-05
3.68777e-07
1.64758e-05
5.06321e-07
1.57496e-05
7.26212e-07
1.46576e-05
1.092e-06
1.29452e-05
1.71241e-06
1.0162e-05
2.7832e-06
5.55723e-06
4.60473e-06
5.55723e-06
-1.19316e-07
-5.33531e-06
1.83181e-06
-6.44961e-06
4.41348e-06
-5.32246e-06
6.7299e-06
-4.03474e-06
8.61074e-06
-2.99716e-06
1.00944e-05
-2.237e-06
1.12607e-05
-1.69747e-06
1.21835e-05
-1.31355e-06
1.29213e-05
-1.03528e-06
1.35177e-05
-8.28818e-07
1.40045e-05
-6.71969e-07
1.4405e-05
-5.50173e-07
1.47367e-05
-4.5375e-07
1.50125e-05
-3.76127e-07
1.52425e-05
-3.12723e-07
1.54343e-05
-2.60266e-07
1.55942e-05
-2.16352e-07
1.57268e-05
-1.7917e-07
1.58362e-05
-1.47324e-07
1.59252e-05
-1.19707e-07
1.59963e-05
-9.54221e-08
1.60514e-05
-7.37232e-08
1.6092e-05
-5.39713e-08
1.61189e-05
-3.56037e-08
1.61329e-05
-1.8109e-08
1.61342e-05
-1.00778e-09
1.61228e-05
1.61732e-08
1.60984e-05
3.39065e-08
1.606e-05
5.26946e-08
1.60066e-05
7.30859e-08
1.59366e-05
9.57026e-08
1.58477e-05
1.21274e-07
1.57374e-05
1.50683e-07
1.56019e-05
1.85025e-07
1.54367e-05
2.257e-07
1.52359e-05
2.7454e-07
1.49921e-05
3.33999e-07
1.46951e-05
4.07444e-07
1.4332e-05
4.99617e-07
1.3885e-05
6.17361e-07
1.33297e-05
7.70811e-07
1.26326e-05
9.75322e-07
1.17468e-05
1.25456e-06
1.0608e-05
1.64513e-06
9.13207e-06
2.20212e-06
7.2246e-06
2.99947e-06
4.8316e-06
4.10542e-06
2.12103e-06
5.49377e-06
1.07194e-08
6.71503e-06
5.56795e-06
-1.08241e-06
-4.2529e-06
-7.53916e-07
-6.7781e-06
5.90026e-07
-6.6664e-06
2.30293e-06
-5.74765e-06
4.01506e-06
-4.70929e-06
5.56778e-06
-3.78972e-06
6.91384e-06
-3.04352e-06
8.05675e-06
-2.45646e-06
9.01903e-06
-1.99756e-06
9.82738e-06
-1.63717e-06
1.05068e-05
-1.35137e-06
1.10787e-05
-1.12209e-06
1.15609e-05
-9.35938e-07
1.19678e-05
-7.83084e-07
1.23113e-05
-6.56225e-07
1.2601e-05
-5.49877e-07
1.28445e-05
-4.59857e-07
1.30482e-05
-3.82908e-07
1.32173e-05
-3.16453e-07
1.3356e-05
-2.58403e-07
1.34676e-05
-2.07033e-07
1.35548e-05
-1.60882e-07
1.36195e-05
-1.18684e-07
1.36632e-05
-7.93074e-08
1.36868e-05
-4.17167e-08
1.36907e-05
-4.9304e-09
1.36749e-05
3.20188e-08
1.36387e-05
7.01054e-08
1.3581e-05
1.10359e-07
1.35002e-05
1.53902e-07
1.33939e-05
2.01995e-07
1.32591e-05
2.56103e-07
1.30918e-05
3.17976e-07
1.28871e-05
3.89754e-07
1.26387e-05
4.74119e-07
1.23387e-05
5.74501e-07
1.19773e-05
6.95371e-07
1.15421e-05
8.42657e-07
1.10174e-05
1.02434e-06
1.03834e-05
1.25132e-06
9.61569e-06
1.53854e-06
8.68451e-06
1.90651e-06
7.55632e-06
2.38275e-06
6.19926e-06
3.00219e-06
4.59861e-06
3.80276e-06
2.79206e-06
4.80602e-06
9.38323e-07
5.95916e-06
-5.70507e-07
7.0026e-06
-1.03812e-06
7.18265e-06
4.52983e-06
-9.12952e-07
-3.33995e-06
-1.34113e-06
-6.34992e-06
-9.35823e-07
-7.07171e-06
2.31229e-08
-6.70659e-06
1.24194e-06
-5.92811e-06
2.5211e-06
-5.06888e-06
3.74781e-06
-4.27023e-06
4.86931e-06
-3.57796e-06
5.86772e-06
-2.99597e-06
6.74315e-06
-2.51259e-06
7.50395e-06
-2.11218e-06
8.16159e-06
-1.77972e-06
8.728e-06
-1.50235e-06
9.21444e-06
-1.26952e-06
9.631e-06
-1.07279e-06
9.98651e-06
-9.05386e-07
1.02885e-05
-7.61885e-07
1.05435e-05
-6.3789e-07
1.07569e-05
-5.29797e-07
1.09331e-05
-4.34602e-07
1.10758e-05
-3.49759e-07
1.1188e-05
-2.73067e-07
1.12719e-05
-2.02582e-07
1.13291e-05
-1.36544e-07
1.13607e-05
-7.33196e-08
1.13671e-05
-1.13453e-08
1.13482e-05
5.0921e-08
1.13033e-05
1.15044e-07
1.1231e-05
1.82669e-07
1.11293e-05
2.55577e-07
1.09955e-05
3.35756e-07
1.08262e-05
4.25481e-07
1.06167e-05
5.27428e-07
1.03617e-05
6.44803e-07
1.00543e-05
7.81531e-07
9.68627e-06
9.42481e-07
9.24786e-06
1.13378e-06
8.72732e-06
1.3632e-06
8.11101e-06
1.64065e-06
7.38363e-06
1.9787e-06
6.52917e-06
2.39301e-06
5.53331e-06
2.90236e-06
4.38885e-06
3.52721e-06
3.10632e-06
4.28471e-06
1.73333e-06
5.17576e-06
3.84662e-07
6.15468e-06
-7.23883e-07
7.0677e-06
-1.26541e-06
7.54412e-06
-9.15788e-07
6.83303e-06
3.61404e-06
-6.64616e-07
-2.67533e-06
-1.29662e-06
-5.71792e-06
-1.41673e-06
-6.95161e-06
-1.04011e-06
-7.08321e-06
-3.21283e-07
-6.64694e-06
5.82202e-07
-5.97236e-06
1.55207e-06
-5.2401e-06
2.5124e-06
-4.53829e-06
3.41995e-06
-3.90352e-06
4.25328e-06
-3.34593e-06
5.00435e-06
-2.86325e-06
5.67277e-06
-2.44814e-06
6.26224e-06
-2.09182e-06
6.77843e-06
-1.78571e-06
7.22765e-06
-1.52202e-06
7.61627e-06
-1.294e-06
7.95022e-06
-1.09584e-06
8.23493e-06
-9.22596e-07
8.47515e-06
-7.7002e-07
8.67499e-06
-6.34448e-07
8.83791e-06
-5.12675e-07
8.9667e-06
-4.0186e-07
9.06356e-06
-2.99436e-07
9.13005e-06
-2.0304e-07
9.16718e-06
-1.10443e-07
9.17533e-06
-1.94948e-08
9.15431e-06
7.19381e-08
9.10332e-06
1.66027e-07
9.02095e-06
2.65047e-07
8.90508e-06
3.71444e-07
8.75292e-06
4.87914e-07
8.5609e-06
6.17499e-07
8.32463e-06
7.63699e-07
8.03882e-06
9.30614e-07
7.69725e-06
1.1231e-06
7.29274e-06
1.34699e-06
6.81724e-06
1.60928e-06
6.26209e-06
1.91835e-06
5.61859e-06
2.28416e-06
4.87918e-06
2.7181e-06
4.03968e-06
3.2325e-06
3.10323e-06
3.83882e-06
2.08682e-06
4.54362e-06
1.03146e-06
5.34007e-06
1.58739e-08
6.19135e-06
-8.30662e-07
7.00122e-06
-1.32833e-06
7.56536e-06
-1.29246e-06
7.50826e-06
-6.84825e-07
6.22539e-06
2.92922e-06
-4.70556e-07
-2.20477e-06
-1.09885e-06
-5.08963e-06
-1.46627e-06
-6.58419e-06
-1.4662e-06
-7.08327e-06
-1.14446e-06
-6.96868e-06
-5.96029e-07
-6.52079e-06
8.53953e-08
-5.92152e-06
8.2593e-07
-5.27882e-06
1.57392e-06
-4.65151e-06
2.29626e-06
-4.06827e-06
2.97354e-06
-3.54052e-06
3.59568e-06
-3.07027e-06
4.15865e-06
-2.6548e-06
4.6622e-06
-2.28925e-06
5.10822e-06
-1.96804e-06
5.4998e-06
-1.68558e-06
5.84052e-06
-1.43656e-06
6.13407e-06
-1.21614e-06
6.38396e-06
-1.01991e-06
6.59342e-06
-8.43905e-07
6.76524e-06
-6.84503e-07
6.90179e-06
-5.38407e-07
7.00491e-06
-4.02558e-07
7.07595e-06
-2.7408e-07
7.11573e-06
-1.50222e-07
7.12453e-06
-2.8295e-08
7.10209e-06
9.43807e-08
7.04758e-06
2.20539e-07
6.95959e-06
3.53032e-07
6.83614e-06
4.94901e-07
6.6746e-06
6.49451e-07
6.47176e-06
8.20343e-07
6.22376e-06
1.01169e-06
5.9262e-06
1.22817e-06
5.57417e-06
1.47513e-06
5.16248e-06
1.75868e-06
4.68599e-06
2.08577e-06
4.14026e-06
2.46409e-06
3.52256e-06
2.90185e-06
2.83364e-06
3.40702e-06
2.08035e-06
3.9858e-06
1.27961e-06
4.63955e-06
4.63939e-07
5.3593e-06
-3.1211e-07
6.11612e-06
-9.66349e-07
6.84559e-06
-1.38995e-06
7.42482e-06
-1.46776e-06
7.64317e-06
-1.13535e-06
7.17585e-06
-4.96344e-07
5.58638e-06
2.43287e-06
-3.39544e-07
-1.86523e-06
-9.00839e-07
-4.52833e-06
-1.36174e-06
-6.1233e-06
-1.58086e-06
-6.86414e-06
-1.53981e-06
-7.00973e-06
-1.28064e-06
-6.77996e-06
-8.64698e-07
-6.33747e-06
-3.51068e-07
-5.79245e-06
2.11958e-07
-5.21453e-06
7.88517e-07
-4.64483e-06
1.35377e-06
-4.10578e-06
1.89161e-06
-3.60811e-06
2.39231e-06
-3.15551e-06
2.8507e-06
-2.74764e-06
3.26464e-06
-2.38198e-06
3.63394e-06
-2.05488e-06
3.95965e-06
-1.76227e-06
4.24345e-06
-1.49994e-06
4.48735e-06
-1.26381e-06
4.69338e-06
-1.04994e-06
4.86347e-06
-8.54586e-07
4.99927e-06
-6.74216e-07
5.10216e-06
-5.05446e-07
5.17311e-06
-3.45025e-07
5.21267e-06
-1.89789e-07
5.22099e-06
-3.66107e-08
5.19772e-06
1.17647e-07
5.14207e-06
2.76189e-07
5.05277e-06
4.42339e-07
4.92806e-06
6.19608e-07
4.76576e-06
8.11752e-07
4.56326e-06
1.02284e-06
4.31762e-06
1.25733e-06
4.02571e-06
1.52008e-06
3.68441e-06
1.81644e-06
3.29096e-06
2.15213e-06
2.84354e-06
2.53319e-06
2.34208e-06
2.96556e-06
1.78948e-06
3.45445e-06
1.19345e-06
4.00306e-06
5.68869e-07
4.61038e-06
-5.91353e-08
5.26755e-06
-6.51887e-07
5.95205e-06
-1.1547e-06
6.61893e-06
-1.49786e-06
7.18874e-06
-1.60584e-06
7.5328e-06
-1.42239e-06
7.45973e-06
-9.58866e-07
6.71232e-06
-3.66332e-07
4.99385e-06
2.06654e-06
-2.54588e-07
-1.61064e-06
-7.39758e-07
-4.04316e-06
-1.21881e-06
-5.64425e-06
-1.5551e-06
-6.52785e-06
-1.69965e-06
-6.86519e-06
-1.65837e-06
-6.82124e-06
-1.46395e-06
-6.53189e-06
-1.15725e-06
-6.09915e-06
-7.77274e-07
-5.59451e-06
-3.56752e-07
-5.06536e-06
7.89109e-08
-4.54145e-06
5.11117e-07
-4.04031e-06
9.26929e-07
-3.57132e-06
1.31782e-06
-3.13853e-06
1.67854e-06
-2.7427e-06
2.00621e-06
-2.38254e-06
2.29953e-06
-2.05559e-06
2.5583e-06
-1.75872e-06
2.78298e-06
-1.48848e-06
2.97434e-06
-1.2413e-06
3.13334e-06
-1.01358e-06
3.26086e-06
-8.01741e-07
3.35769e-06
-6.02268e-07
3.42435e-06
-4.1169e-07
3.46113e-06
-2.26566e-07
3.46797e-06
-4.34548e-08
3.4445e-06
1.41117e-07
3.38999e-06
3.30698e-07
3.30338e-06
5.2895e-07
3.1833e-06
7.39692e-07
3.02811e-06
9.6694e-07
2.83602e-06
1.21494e-06
2.60518e-06
1.48817e-06
2.33392e-06
1.79134e-06
2.02106e-06
2.1293e-06
1.66632e-06
2.50687e-06
1.271e-06
2.92851e-06
8.38813e-07
3.39774e-06
3.77118e-07
3.91614e-06
-1.01627e-07
4.4818e-06
-5.78076e-07
5.08683e-06
-1.02424e-06
5.71372e-06
-1.40236e-06
6.33017e-06
-1.66561e-06
6.88218e-06
-1.76289e-06
7.28602e-06
-1.65074e-06
7.42065e-06
-1.31577e-06
7.12475e-06
-8.0842e-07
6.20497e-06
-2.80903e-07
4.46633e-06
1.78564e-06
-1.98985e-07
-1.41166e-06
-6.1687e-07
-3.62528e-06
-1.0814e-06
-5.17972e-06
-1.47435e-06
-6.1349e-06
-1.73632e-06
-6.60322e-06
-1.85185e-06
-6.7057e-06
-1.83225e-06
-6.55149e-06
-1.70175e-06
-6.22966e-06
-1.48836e-06
-5.8079e-06
-1.21871e-06
-5.335e-06
-9.15644e-07
-4.84451e-06
-5.97479e-07
-4.35848e-06
-2.78215e-07
-3.89058e-06
3.18969e-08
-3.44865e-06
3.25648e-07
-3.03645e-06
5.98187e-07
-2.65508e-06
8.4643e-07
-2.30383e-06
1.06857e-06
-1.98085e-06
1.26366e-06
-1.68358e-06
1.43136e-06
-1.409e-06
1.57164e-06
-1.15386e-06
1.68464e-06
-9.14746e-07
1.77055e-06
-6.88171e-07
1.82945e-06
-4.70598e-07
1.86134e-06
-2.5845e-07
1.86599e-06
-4.81106e-08
1.84302e-06
1.64097e-07
1.79179e-06
3.81921e-07
1.71153e-06
6.0921e-07
1.6013e-06
8.49919e-07
1.46012e-06
1.10813e-06
1.28704e-06
1.38801e-06
1.08139e-06
1.69383e-06
8.42936e-07
2.02979e-06
5.72318e-07
2.39992e-06
2.71463e-07
2.80772e-06
-5.57779e-08
3.25575e-06
-4.02841e-07
3.7448e-06
-7.59503e-07
4.2728e-06
-1.11083e-06
4.83312e-06
-1.43619e-06
5.41219e-06
-1.70873e-06
5.98626e-06
-1.89587e-06
6.51731e-06
-1.96197e-06
6.94828e-06
-1.87455e-06
7.1986e-06
-1.6156e-06
7.1617e-06
-1.19866e-06
6.70781e-06
-6.89748e-07
5.69606e-06
-2.24231e-07
4.00082e-06
1.56141e-06
-1.6164e-07
-1.25002e-06
-5.24942e-07
-3.26197e-06
-9.6337e-07
-4.74129e-06
-1.37919e-06
-5.71908e-06
-1.71297e-06
-6.26944e-06
-1.93833e-06
-6.48035e-06
-2.05223e-06
-6.43759e-06
-2.06569e-06
-6.21619e-06
-1.99648e-06
-5.87711e-06
-1.86423e-06
-5.46726e-06
-1.6876e-06
-5.02114e-06
-1.48289e-06
-4.56319e-06
-1.26353e-06
-4.10994e-06
-1.04014e-06
-3.67204e-06
-8.20826e-07
-3.25577e-06
-6.1158e-07
-2.86433e-06
-4.16711e-07
-2.4987e-06
-2.39215e-07
-2.15835e-06
-8.11167e-08
-1.84168e-06
5.62635e-08
-1.54638e-06
1.72084e-07
-1.26968e-06
2.65808e-07
-1.00847e-06
3.37072e-07
-7.59434e-07
3.8558e-07
-5.19106e-07
4.1104e-07
-2.83911e-07
4.13116e-07
-5.01862e-08
3.91405e-07
1.85807e-07
3.45446e-07
4.27881e-07
2.74744e-07
6.79911e-07
1.78835e-07
9.45828e-07
5.73762e-08
1.22958e-06
-8.97125e-08
1.5351e-06
-2.62054e-07
1.86617e-06
-4.58555e-07
2.22629e-06
-6.77058e-07
2.61842e-06
-9.13914e-07
3.04458e-06
-1.16345e-06
3.50528e-06
-1.41735e-06
3.9987e-06
-1.66402e-06
4.51948e-06
-1.88803e-06
5.05714e-06
-2.06984e-06
5.594e-06
-2.18616e-06
6.10258e-06
-2.21154e-06
6.54269e-06
-2.12181e-06
6.85855e-06
-1.90024e-06
6.97703e-06
-1.54677e-06
6.80824e-06
-1.08984e-06
6.25088e-06
-5.97994e-07
5.20421e-06
-1.85437e-07
3.58826e-06
1.37597e-06
-1.35827e-07
-1.11419e-06
-4.56333e-07
-2.94147e-06
-8.66771e-07
-4.33085e-06
-1.28762e-06
-5.29823e-06
-1.664e-06
-5.89305e-06
-1.96505e-06
-6.1793e-06
-2.17898e-06
-6.22366e-06
-2.30717e-06
-6.08799e-06
-2.35886e-06
-5.82542e-06
-2.34703e-06
-5.47909e-06
-2.28568e-06
-5.08249e-06
-2.18816e-06
-4.66071e-06
-2.0663e-06
-4.2318e-06
-1.9301e-06
-3.80823e-06
-1.78769e-06
-3.39818e-06
-1.64549e-06
-3.00653e-06
-1.50846e-06
-2.63573e-06
-1.38034e-06
-2.28647e-06
-1.26392e-06
-1.9581e-06
-1.16123e-06
-1.64907e-06
-1.07377e-06
-1.35715e-06
-1.0026e-06
-1.07964e-06
-9.4854e-07
-8.13493e-07
-9.12213e-07
-5.55434e-07
-8.94122e-07
-3.02002e-07
-8.94695e-07
-4.96132e-08
-9.14299e-07
2.05412e-07
-9.53231e-07
4.66813e-07
-1.01168e-06
7.38361e-07
-1.08966e-06
1.02381e-06
-1.18692e-06
1.32684e-06
-1.30277e-06
1.65095e-06
-1.43593e-06
1.99933e-06
-1.58425e-06
2.37461e-06
-1.74443e-06
2.7786e-06
-1.91165e-06
3.2118e-06
-2.07918e-06
3.67282e-06
-2.23798e-06
4.1575e-06
-2.37635e-06
4.65785e-06
-2.47983e-06
5.16062e-06
-2.53145e-06
5.64562e-06
-2.51268e-06
6.08382e-06
-2.4055e-06
6.43551e-06
-2.19593e-06
6.64898e-06
-1.87928e-06
6.66038e-06
-1.46712e-06
6.39607e-06
-9.9472e-07
5.77849e-06
-5.26859e-07
4.73635e-06
-1.57876e-07
3.21928e-06
1.21809e-06
-1.17509e-07
-9.9668e-07
-4.04899e-07
-2.65408e-06
-7.89505e-07
-3.94624e-06
-1.20663e-06
-4.8811e-06
-1.60745e-06
-5.49223e-06
-1.96027e-06
-5.82649e-06
-2.2484e-06
-5.93553e-06
-2.46668e-06
-5.86971e-06
-2.61773e-06
-5.67437e-06
-2.70881e-06
-5.38801e-06
-2.74943e-06
-5.04188e-06
-2.74968e-06
-4.66045e-06
-2.71928e-06
-4.2622e-06
-2.66695e-06
-3.86057e-06
-2.60022e-06
-3.46491e-06
-2.52537e-06
-3.08138e-06
-2.44752e-06
-2.71358e-06
-2.37077e-06
-2.36322e-06
-2.29832e-06
-2.03055e-06
-2.23267e-06
-1.71472e-06
-2.17575e-06
-1.41407e-06
-2.12904e-06
-1.12635e-06
-2.09366e-06
-8.48868e-07
-2.07049e-06
-5.78608e-07
-2.06017e-06
-3.12323e-07
-2.06317e-06
-4.66061e-08
-2.07981e-06
2.22053e-07
-2.11021e-06
4.97214e-07
-2.15428e-06
7.82424e-07
-2.21162e-06
1.08115e-06
-2.28145e-06
1.39668e-06
-2.36249e-06
1.73199e-06
-2.45273e-06
2.08957e-06
-2.54929e-06
2.47116e-06
-2.64812e-06
2.87743e-06
-2.74379e-06
3.30747e-06
-2.8292e-06
3.75823e-06
-2.89543e-06
4.22372e-06
-2.93162e-06
4.69404e-06
-2.92521e-06
5.15421e-06
-2.86256e-06
5.58297e-06
-2.73019e-06
5.95144e-06
-2.51691e-06
6.22223e-06
-2.21699e-06
6.34907e-06
-1.83437e-06
6.27776e-06
-1.38745e-06
5.94915e-06
-9.13508e-07
5.30455e-06
-4.71043e-07
4.29389e-06
-1.37575e-07
2.88581e-06
1.08052e-06
-1.04223e-07
-8.92458e-07
-3.66091e-07
-2.39221e-06
-7.28407e-07
-3.58393e-06
-1.13809e-06
-4.47143e-06
-1.55231e-06
-5.07801e-06
-1.94045e-06
-5.43835e-06
-2.28346e-06
-5.59251e-06
-2.57193e-06
-5.58125e-06
-2.80362e-06
-5.44268e-06
-2.98116e-06
-5.21047e-06
-3.11007e-06
-4.91297e-06
-3.19732e-06
-4.5732e-06
-3.25029e-06
-4.20924e-06
-3.27609e-06
-3.83476e-06
-3.28127e-06
-3.45973e-06
-3.27156e-06
-3.09109e-06
-3.25185e-06
-2.73329e-06
-3.22623e-06
-2.38884e-06
-3.19807e-06
-2.05871e-06
-3.17009e-06
-1.7427e-06
-3.14446e-06
-1.4397e-06
-3.12289e-06
-1.14792e-06
-3.10672e-06
-8.65038e-07
-3.09696e-06
-5.88366e-07
-3.09435e-06
-3.14936e-07
-3.09936e-06
-4.15972e-08
-3.11222e-06
2.34911e-07
-3.13288e-06
5.17877e-07
-3.161e-06
8.10543e-07
-3.19585e-06
1.116e-06
-3.23625e-06
1.43708e-06
-3.28045e-06
1.77618e-06
-3.32596e-06
2.13509e-06
-3.36946e-06
2.51466e-06
-3.40655e-06
2.91452e-06
-3.43167e-06
3.33259e-06
-3.43793e-06
3.7645e-06
-3.41713e-06
4.20292e-06
-3.35988e-06
4.63679e-06
-3.25604e-06
5.05037e-06
-3.0955e-06
5.42243e-06
-2.86955e-06
5.72549e-06
-2.57281e-06
5.92549e-06
-2.20589e-06
5.98214e-06
-1.77847e-06
5.85035e-06
-1.31254e-06
5.48321e-06
-8.44691e-07
4.8367e-06
-4.26589e-07
3.87579e-06
-1.2214e-07
2.58136e-06
9.58379e-07
-9.44222e-08
-7.98035e-07
-3.36627e-07
-2.15e-06
-6.80384e-07
-3.24017e-06
-1.08153e-06
-4.07028e-06
-1.50262e-06
-4.65691e-06
-1.91493e-06
-5.02604e-06
-2.29858e-06
-5.20887e-06
-2.64155e-06
-5.23827e-06
-2.9382e-06
-5.14603e-06
-3.18755e-06
-4.96112e-06
-3.39178e-06
-4.70873e-06
-3.55502e-06
-4.40997e-06
-3.68236e-06
-4.0819e-06
-3.77923e-06
-3.73789e-06
-3.85094e-06
-3.38803e-06
-3.9024e-06
-3.03963e-06
-3.93804e-06
-2.69766e-06
-3.96168e-06
-2.3652e-06
-3.9766e-06
-2.04379e-06
-3.98553e-06
-1.73376e-06
-3.99073e-06
-1.4345e-06
-3.994e-06
-1.14465e-06
-3.99677e-06
-8.62266e-07
-4.00012e-06
-5.85022e-07
-4.00479e-06
-3.10268e-07
-4.01122e-06
-3.51602e-08
-4.01956e-06
2.43249e-07
-4.02961e-06
5.27923e-07
-4.0408e-06
8.21734e-07
-4.05216e-06
1.12736e-06
-4.06221e-06
1.44713e-06
-4.0689e-06
1.78288e-06
-4.06952e-06
2.1357e-06
-4.06053e-06
2.50567e-06
-4.03757e-06
2.89155e-06
-3.9953e-06
3.29032e-06
-3.92747e-06
3.69667e-06
-3.82703e-06
4.10248e-06
-3.68639e-06
4.49615e-06
-3.49799e-06
4.86197e-06
-3.25515e-06
5.17958e-06
-2.95333e-06
5.42368e-06
-2.59186e-06
5.56402e-06
-2.17596e-06
5.56624e-06
-1.71895e-06
5.39334e-06
-1.24424e-06
5.00851e-06
-7.86409e-07
4.37887e-06
-3.90664e-07
3.48004e-06
-1.10093e-07
2.30079e-06
8.48286e-07
-8.71014e-08
-7.10934e-07
-3.1414e-07
-1.92297e-06
-6.42771e-07
-2.91154e-06
-1.03563e-06
-3.67743e-06
-1.45984e-06
-4.2327e-06
-1.8888e-06
-4.59708e-06
-2.30266e-06
-4.79501e-06
-2.68797e-06
-4.85296e-06
-3.03672e-06
-4.79728e-06
-3.34523e-06
-4.65261e-06
-3.61298e-06
-4.44098e-06
-3.84165e-06
-4.1813e-06
-4.03425e-06
-3.8893e-06
-4.19451e-06
-3.57762e-06
-4.32645e-06
-3.25608e-06
-4.43406e-06
-2.93202e-06
-4.52107e-06
-2.61064e-06
-4.5909e-06
-2.29537e-06
-4.64654e-06
-1.98814e-06
-4.6906e-06
-1.68971e-06
-4.72525e-06
-1.39985e-06
-4.75229e-06
-1.11761e-06
-4.77312e-06
-8.41433e-07
-4.78881e-06
-5.6933e-07
-4.80008e-06
-2.98999e-07
-4.80731e-06
-2.79338e-08
-4.81053e-06
2.46469e-07
-4.80941e-06
5.26807e-07
-4.80324e-06
8.15562e-07
-4.79086e-06
1.11497e-06
-4.77062e-06
1.42689e-06
-4.74033e-06
1.7526e-06
-4.69721e-06
2.09258e-06
-4.6378e-06
2.44627e-06
-4.55799e-06
2.81174e-06
-4.45299e-06
3.18531e-06
-4.31745e-06
3.56114e-06
-4.14571e-06
3.93074e-06
-3.93209e-06
4.28254e-06
-3.67157e-06
4.60144e-06
-3.36055e-06
4.86856e-06
-2.99803e-06
5.06116e-06
-2.58696e-06
5.15296e-06
-2.13579e-06
5.11506e-06
-1.65995e-06
4.91751e-06
-1.18301e-06
4.53157e-06
-7.36954e-07
3.93281e-06
-3.61266e-07
3.10435e-06
-1.00495e-07
2.04002e-06
7.47791e-07
-8.15838e-08
-6.2935e-07
-2.96917e-07
-1.70763e-06
-6.13388e-07
-2.59507e-06
-9.98809e-07
-3.292e-06
-1.42406e-06
-3.80745e-06
-1.8646e-06
-4.15654e-06
-2.30109e-06
-4.35853e-06
-2.71933e-06
-4.43472e-06
-3.10977e-06
-4.40684e-06
-3.46674e-06
-4.29565e-06
-3.78759e-06
-4.12012e-06
-4.07195e-06
-3.89694e-06
-4.32099e-06
-3.64026e-06
-4.53689e-06
-3.36172e-06
-4.7224e-06
-3.07057e-06
-4.88051e-06
-2.77392e-06
-5.01421e-06
-2.47695e-06
-5.12636e-06
-2.18322e-06
-5.21959e-06
-1.89491e-06
-5.29623e-06
-1.61306e-06
-5.35829e-06
-1.33779e-06
-5.40745e-06
-1.06846e-06
-5.44502e-06
-8.03862e-07
-5.472e-06
-5.42351e-07
-5.48903e-06
-2.81967e-07
-5.49641e-06
-2.05526e-08
-5.49408e-06
2.44138e-07
-5.4816e-06
5.14328e-07
-5.45814e-06
7.92103e-07
-5.42244e-06
1.07928e-06
-5.3728e-06
1.37725e-06
-5.30701e-06
1.68681e-06
-5.22238e-06
2.00795e-06
-5.11572e-06
2.3396e-06
-4.98334e-06
2.67936e-06
-4.8212e-06
3.02318e-06
-4.62503e-06
3.36497e-06
-4.39061e-06
3.69632e-06
-4.11419e-06
4.00611e-06
-3.79304e-06
4.2803e-06
-3.42627e-06
4.50179e-06
-3.01572e-06
4.65061e-06
-2.56707e-06
4.70431e-06
-2.09094e-06
4.63893e-06
-1.60384e-06
4.4304e-06
-1.12873e-06
4.05646e-06
-6.9491e-07
3.49899e-06
-3.36976e-07
2.74642e-06
-9.27298e-08
1.79577e-06
6.55061e-07
-7.74014e-08
-5.51949e-07
-2.83699e-07
-1.50134e-06
-5.90498e-07
-2.28827e-06
-9.69554e-07
-2.91295e-06
-1.39478e-06
-3.38222e-06
-1.84348e-06
-3.70784e-06
-2.29703e-06
-3.90498e-06
-2.74094e-06
-3.99081e-06
-3.16468e-06
-3.9831e-06
-3.56113e-06
-3.8992e-06
-3.92601e-06
-3.75524e-06
-4.25727e-06
-3.56568e-06
-4.55453e-06
-3.34301e-06
-4.81857e-06
-3.09768e-06
-5.05094e-06
-2.8382e-06
-5.25368e-06
-2.57119e-06
-5.42899e-06
-2.30163e-06
-5.57914e-06
-2.03306e-06
-5.70632e-06
-1.76774e-06
-5.81251e-06
-1.50687e-06
-5.89948e-06
-1.25082e-06
-5.96871e-06
-9.99223e-07
-6.02141e-06
-7.51171e-07
-6.05843e-06
-5.05332e-07
-6.08032e-06
-2.60077e-07
-6.08728e-06
-1.35894e-08
-6.07916e-06
2.36022e-07
-6.05545e-06
4.90615e-07
-6.01524e-06
7.51894e-07
-5.95724e-06
1.02128e-06
-5.87977e-06
1.29977e-06
-5.78072e-06
1.58776e-06
-5.65761e-06
1.88484e-06
-5.50763e-06
2.18962e-06
-5.32767e-06
2.49941e-06
-5.11452e-06
2.81003e-06
-4.86503e-06
3.11548e-06
-4.57643e-06
3.40772e-06
-4.24674e-06
3.67642e-06
-3.8753e-06
3.90886e-06
-3.46346e-06
4.08995e-06
-3.01531e-06
4.20246e-06
-2.53852e-06
4.22752e-06
-2.04509e-06
4.1455e-06
-1.55192e-06
3.93724e-06
-1.08103e-06
3.58557e-06
-6.59162e-07
3.07712e-06
-3.16788e-07
2.40404e-06
-8.63841e-08
1.56537e-06
5.68677e-07
-7.42224e-08
-4.77726e-07
-2.73556e-07
-1.302e-06
-5.72732e-07
-1.9891e-06
-9.46508e-07
-2.53917e-06
-1.37121e-06
-2.95752e-06
-1.82575e-06
-3.25329e-06
-2.29225e-06
-3.43849e-06
-2.7562e-06
-3.52685e-06
-3.20647e-06
-3.53283e-06
-3.63492e-06
-3.47075e-06
-4.03601e-06
-3.35415e-06
-4.40637e-06
-3.19532e-06
-4.7443e-06
-3.00508e-06
-5.04938e-06
-2.7926e-06
-5.32212e-06
-2.56546e-06
-5.5636e-06
-2.3297e-06
-5.77532e-06
-2.08991e-06
-5.95894e-06
-1.84945e-06
-6.11614e-06
-1.61053e-06
-6.24855e-06
-1.37446e-06
-6.35766e-06
-1.14171e-06
-6.44472e-06
-9.12163e-07
-6.51075e-06
-6.85142e-07
-6.55648e-06
-4.59605e-07
-6.58233e-06
-2.34226e-07
-6.5884e-06
-7.51228e-09
-6.57448e-06
2.22093e-07
-6.53997e-06
4.56104e-07
-6.48395e-06
6.95877e-07
-6.40515e-06
9.42486e-07
-6.30197e-06
1.19659e-06
-6.17248e-06
1.45827e-06
-6.01449e-06
1.72686e-06
-5.82565e-06
2.00077e-06
-5.60348e-06
2.27724e-06
-5.34564e-06
2.55218e-06
-5.05008e-06
2.81992e-06
-4.71539e-06
3.07302e-06
-4.34117e-06
3.3022e-06
-3.92855e-06
3.49624e-06
-3.48068e-06
3.64209e-06
-3.0034e-06
3.72518e-06
-2.50579e-06
3.72991e-06
-2.00068e-06
3.64039e-06
-1.50497e-06
3.44152e-06
-1.03954e-06
3.12014e-06
-6.28854e-07
2.66644e-06
-2.99981e-07
2.07517e-06
-8.11727e-08
1.34656e-06
4.87504e-07
-7.18073e-08
-4.05919e-07
-2.65794e-07
-1.10801e-06
-5.59019e-07
-1.69587e-06
-9.28525e-07
-2.16967e-06
-1.35254e-06
-2.5335e-06
-1.81132e-06
-2.79452e-06
-2.28768e-06
-2.96213e-06
-2.76727e-06
-3.04726e-06
-3.23858e-06
-3.06152e-06
-3.69276e-06
-3.01657e-06
-4.12334e-06
-2.92357e-06
-4.5259e-06
-2.79276e-06
-4.89767e-06
-2.6333e-06
-5.23722e-06
-2.45304e-06
-5.54412e-06
-2.25856e-06
-5.81866e-06
-2.05516e-06
-6.06163e-06
-1.84695e-06
-6.2741e-06
-1.63698e-06
-6.4573e-06
-1.42733e-06
-6.61249e-06
-1.21927e-06
-6.74083e-06
-1.01338e-06
-6.84334e-06
-8.09647e-07
-6.92086e-06
-6.07628e-07
-6.97395e-06
-4.06514e-07
-7.00292e-06
-2.05257e-07
-7.00777e-06
-2.65589e-09
-6.98821e-06
2.02535e-07
-6.94363e-06
4.11519e-07
-6.87309e-06
6.25343e-07
-6.7754e-06
8.44788e-07
-6.64906e-06
1.07025e-06
-6.49238e-06
1.30159e-06
-6.30351e-06
1.53799e-06
-6.08056e-06
1.77782e-06
-5.82174e-06
2.01842e-06
-5.52551e-06
2.25595e-06
-5.19087e-06
2.48528e-06
-4.81762e-06
2.69978e-06
-4.40675e-06
2.89133e-06
-3.96084e-06
3.05033e-06
-3.48452e-06
3.16577e-06
-2.98493e-06
3.22559e-06
-2.47213e-06
3.21711e-06
-1.95941e-06
3.12767e-06
-1.46339e-06
2.9455e-06
-1.00388e-06
2.66062e-06
-6.0334e-07
2.2659e-06
-2.86038e-07
1.75787e-06
-7.6897e-08
1.13742e-06
4.10607e-07
-6.99819e-08
-3.35937e-07
-2.59895e-07
-9.18102e-07
-5.48529e-07
-1.40724e-06
-9.14657e-07
-1.80354e-06
-1.33799e-06
-2.11017e-06
-1.79987e-06
-2.33264e-06
-2.28375e-06
-2.47825e-06
-2.77547e-06
-2.55554e-06
-3.26332e-06
-2.57367e-06
-3.73797e-06
-2.54192e-06
-4.19225e-06
-2.46928e-06
-4.62093e-06
-2.36409e-06
-5.02038e-06
-2.23384e-06
-5.38835e-06
-2.08508e-06
-5.72361e-06
-1.9233e-06
-6.02575e-06
-1.75302e-06
-6.29494e-06
-1.57776e-06
-6.53173e-06
-1.40018e-06
-6.73692e-06
-1.22214e-06
-6.9114e-06
-1.0448e-06
-7.05603e-06
-8.68744e-07
-7.17161e-06
-6.94069e-07
-7.25876e-06
-5.20473e-07
-7.31792e-06
-3.47357e-07
-7.34926e-06
-1.73914e-07
-7.35271e-06
7.92033e-10
-7.32791e-06
1.77731e-07
-7.27422e-06
3.57831e-07
-7.19075e-06
5.41875e-07
-7.07637e-06
7.30407e-07
-6.92975e-06
9.23625e-07
-6.74943e-06
1.12127e-06
-6.53391e-06
1.32248e-06
-6.28179e-06
1.5257e-06
-5.99187e-06
1.7285e-06
-5.6634e-06
1.92748e-06
-5.29629e-06
2.11817e-06
-4.89141e-06
2.2949e-06
-4.4509e-06
2.45082e-06
-3.97853e-06
2.57796e-06
-3.48007e-06
2.6673e-06
-2.96362e-06
2.70914e-06
-2.43991e-06
2.6934e-06
-1.92244e-06
2.6102e-06
-1.42747e-06
2.45053e-06
-9.73775e-07
2.20693e-06
-5.82138e-07
1.87426e-06
-2.74586e-07
1.45032e-06
-7.34166e-08
9.3625e-07
3.37191e-07
-6.86182e-08
-2.67319e-07
-2.5547e-07
-7.3125e-07
-5.40623e-07
-1.12208e-06
-9.04146e-07
-1.44002e-06
-1.32688e-06
-1.68744e-06
-1.79104e-06
-1.86849e-06
-2.2806e-06
-1.98869e-06
-2.78161e-06
-2.05452e-06
-3.28227e-06
-2.073e-06
-3.77291e-06
-2.05128e-06
-4.24586e-06
-1.99633e-06
-4.69527e-06
-1.91468e-06
-5.11685e-06
-1.81226e-06
-5.50767e-06
-1.69426e-06
-5.86587e-06
-1.56511e-06
-6.19044e-06
-1.42845e-06
-6.48103e-06
-1.28717e-06
-6.73775e-06
-1.14346e-06
-6.961e-06
-9.98894e-07
-7.15132e-06
-8.54469e-07
-7.30935e-06
-7.1072e-07
-7.43564e-06
-5.67781e-07
-7.53064e-06
-4.25468e-07
-7.59465e-06
-2.83352e-07
-7.62773e-06
-1.40833e-07
-7.62973e-06
2.79173e-09
-7.60025e-06
1.4825e-07
-7.53865e-06
2.9623e-07
-7.44407e-06
4.47294e-07
-7.31546e-06
6.01805e-07
-7.15167e-06
7.59833e-07
-6.95147e-06
9.21064e-07
-6.71369e-06
1.0847e-06
-6.43735e-06
1.24936e-06
-6.12183e-06
1.41297e-06
-5.76703e-06
1.57269e-06
-5.37367e-06
1.7248e-06
-4.94348e-06
1.86471e-06
-4.47954e-06
1.98689e-06
-3.98657e-06
2.08499e-06
-3.47121e-06
2.15194e-06
-2.94226e-06
2.18019e-06
-2.41087e-06
2.16201e-06
-1.89062e-06
2.08995e-06
-1.39736e-06
1.95727e-06
-9.48979e-07
1.75855e-06
-5.64896e-07
1.49018e-06
-2.65359e-07
1.15078e-06
-7.06322e-08
7.41523e-07
2.66558e-07
-6.76228e-08
-1.99696e-07
-2.5223e-07
-5.46643e-07
-5.34815e-07
-8.39499e-07
-8.96395e-07
-1.07844e-06
-1.31866e-06
-1.26517e-06
-1.78446e-06
-1.40268e-06
-2.27822e-06
-1.49492e-06
-2.78618e-06
-1.54657e-06
-3.29649e-06
-1.5627e-06
-3.79926e-06
-1.54851e-06
-4.28646e-06
-1.50913e-06
-4.75178e-06
-1.44936e-06
-5.19044e-06
-1.3736e-06
-5.59899e-06
-1.28572e-06
-5.97506e-06
-1.18904e-06
-6.31718e-06
-1.08633e-06
-6.62457e-06
-9.79772e-07
-6.89697e-06
-8.71065e-07
-7.13445e-06
-7.61417e-07
-7.33729e-06
-6.51626e-07
-7.50588e-06
-5.4213e-07
-7.64059e-06
-4.33066e-07
-7.74174e-06
-3.24327e-07
-7.80947e-06
-2.15623e-07
-7.84377e-06
-1.06531e-07
-7.84442e-06
3.44497e-09
-7.81099e-06
1.14823e-07
-7.74285e-06
2.28084e-07
-7.63917e-06
3.43613e-07
-7.49899e-06
4.61634e-07
-7.32131e-06
5.82149e-07
-7.10511e-06
7.0486e-07
-6.8495e-06
8.291e-07
-6.5539e-06
9.53758e-07
-6.21813e-06
1.0772e-06
-5.84267e-06
1.19723e-06
-5.42885e-06
1.31099e-06
-4.97913e-06
1.41498e-06
-4.4973e-06
1.50506e-06
-3.98881e-06
1.5765e-06
-3.46093e-06
1.62405e-06
-2.92295e-06
1.64221e-06
-2.3863e-06
1.62537e-06
-1.86454e-06
1.56818e-06
-1.37316e-06
1.46589e-06
-9.29319e-07
1.31471e-06
-5.51357e-07
1.11221e-06
-2.58165e-07
8.57586e-07
-6.84735e-08
5.51832e-07
1.98085e-07
-6.69288e-08
-1.32768e-07
-2.49966e-07
-3.63605e-07
-5.30748e-07
-5.58717e-07
-8.90953e-07
-7.1823e-07
-1.31287e-06
-8.43262e-07
-1.77982e-06
-9.35728e-07
-2.27656e-06
-9.98191e-07
-2.78945e-06
-1.03368e-06
-3.30666e-06
-1.04549e-06
-3.81815e-06
-1.03703e-06
-4.31564e-06
-1.01164e-06
-4.79251e-06
-9.72489e-07
-5.24363e-06
-9.22486e-07
-5.66514e-06
-8.64202e-07
-6.05433e-06
-7.99853e-07
-6.40937e-06
-7.31283e-07
-6.72917e-06
-6.59976e-07
-7.01316e-06
-5.87073e-07
-7.26117e-06
-5.13402e-07
-7.47329e-06
-4.39513e-07
-7.6497e-06
-3.65717e-07
-7.79064e-06
-2.92124e-07
-7.89629e-06
-2.18678e-07
-7.96671e-06
-1.45199e-07
-8.00183e-06
-7.14211e-08
-8.00135e-06
2.97366e-09
-7.96485e-06
7.83149e-08
-7.89167e-06
1.54907e-07
-7.78104e-06
2.32986e-07
-7.63209e-06
3.1268e-07
-7.4439e-06
3.93965e-07
-7.21565e-06
4.76612e-07
-6.9467e-06
5.60143e-07
-6.63672e-06
6.43783e-07
-6.28593e-06
7.26408e-07
-5.89521e-06
8.06511e-07
-5.46639e-06
8.82169e-07
-5.00244e-06
9.5103e-07
-4.5077e-06
1.01033e-06
-3.98812e-06
1.05691e-06
-3.45142e-06
1.08735e-06
-2.90722e-06
1.09802e-06
-2.36713e-06
1.08528e-06
-1.84464e-06
1.04569e-06
-1.35495e-06
9.76199e-07
-9.1467e-07
8.74433e-07
-5.41341e-07
7.38885e-07
-2.52871e-07
5.69116e-07
-6.68917e-08
3.65853e-07
1.31193e-07
-6.64901e-08
-6.62775e-08
-2.48534e-07
-1.81561e-07
-5.2817e-07
-2.7908e-07
-8.87499e-07
-3.58902e-07
-1.30919e-06
-4.21575e-07
-1.77687e-06
-4.68041e-07
-2.2755e-06
-4.99558e-07
-2.79157e-06
-5.17613e-07
-3.31322e-06
-5.23833e-07
-3.83035e-06
-5.19897e-07
-4.33453e-06
-5.07461e-07
-4.81892e-06
-4.88097e-07
-5.27816e-06
-4.63248e-07
-5.70816e-06
-4.34199e-07
-6.10596e-06
-4.02057e-07
-6.46949e-06
-3.67747e-07
-6.79745e-06
-3.32014e-07
-7.08909e-06
-2.95435e-07
-7.34406e-06
-2.58429e-07
-7.5623e-06
-2.21278e-07
-7.74388e-06
-1.84142e-07
-7.88892e-06
-1.4708e-07
-7.99753e-06
-1.10071e-07
-8.0697e-06
-7.30288e-08
-8.10529e-06
-3.58244e-08
-8.10402e-06
1.69645e-09
-8.06539e-06
3.9694e-08
-7.9888e-06
7.8315e-08
-7.87349e-06
1.17672e-07
-7.71863e-06
1.57823e-07
-7.52341e-06
1.98746e-07
-7.28712e-06
2.40319e-07
-7.00927e-06
2.82293e-07
-6.68976e-06
3.24269e-07
-6.32902e-06