/*--------------------------------*- C++ -*----------------------------------*\
  =========                 |
  \\      /  F ield         | OpenFOAM: The Open Source CFD Toolbox
   \\    /   O peration     | Website:  https://openfoam.org
    \\  /    A nd           | Version:  7
     \\/     M anipulation  |
\*---------------------------------------------------------------------------*/
FoamFile
{
    version     2.0;
    format      ascii;
    class       volVectorField;
    location    "0.0126";
    object      U;
}
// * * * * * * * * * * * * * * * * * * * * * * * * * * * * * * * * * * * * * //

dimensions      [0 1 -1 0 0 0 0];

internalField   nonuniform List<vector> 
2500
(
(2.2853e-05 -2.2861e-05 0)
(5.1783e-05 -1.65646e-05 0)
(3.32704e-05 5.29397e-06 0)
(-4.92016e-05 2.81105e-05 0)
(-0.000193672 4.84379e-05 0)
(-0.000390525 6.47512e-05 0)
(-0.00062976 7.70435e-05 0)
(-0.000901083 8.57576e-05 0)
(-0.00119493 9.13937e-05 0)
(-0.00150278 9.44183e-05 0)
(-0.00181717 9.52454e-05 0)
(-0.00213168 9.42349e-05 0)
(-0.0024408 9.16958e-05 0)
(-0.00273989 8.78908e-05 0)
(-0.00302502 8.30411e-05 0)
(-0.00329293 7.73312e-05 0)
(-0.00354089 7.09143e-05 0)
(-0.00376664 6.39166e-05 0)
(-0.00396832 5.6442e-05 0)
(-0.00414437 4.85765e-05 0)
(-0.00429354 4.03923e-05 0)
(-0.00441481 3.19508e-05 0)
(-0.00450737 2.33063e-05 0)
(-0.00457058 1.45076e-05 0)
(-0.004604 5.60076e-06 0)
(-0.00460734 -3.36889e-06 0)
(-0.00458049 -1.23555e-05 0)
(-0.0045235 -2.13108e-05 0)
(-0.0044366 -3.0183e-05 0)
(-0.00432021 -3.89141e-05 0)
(-0.00417498 -4.74385e-05 0)
(-0.00400181 -5.56808e-05 0)
(-0.00380187 -6.35529e-05 0)
(-0.00357667 -7.09512e-05 0)
(-0.0033281 -7.77532e-05 0)
(-0.00305848 -8.38141e-05 0)
(-0.00277068 -8.89629e-05 0)
(-0.00246814 -9.29988e-05 0)
(-0.00215499 -9.56876e-05 0)
(-0.00183613 -9.67581e-05 0)
(-0.00151732 -9.58982e-05 0)
(-0.00120526 -9.2751e-05 0)
(-0.000907649 -8.69127e-05 0)
(-0.000633207 -7.79344e-05 0)
(-0.000391643 -6.53398e-05 0)
(-0.000193311 -4.87137e-05 0)
(-4.8121e-05 -2.81033e-05 0)
(3.43473e-05 -5.13604e-06 0)
(5.23603e-05 1.67806e-05 0)
(2.30263e-05 2.29771e-05 0)
(1.68038e-05 -5.18737e-05 0)
(-2.5724e-06 3.19117e-06 0)
(-0.000143698 0.000112121 0)
(-0.000425107 0.000228285 0)
(-0.000843979 0.000335063 0)
(-0.00138523 0.000424934 0)
(-0.0020284 0.000495853 0)
(-0.0027511 0.00054827 0)
(-0.00353127 0.000583629 0)
(-0.00434828 0.000603738 0)
(-0.00518342 0.00061048 0)
(-0.0060201 0.000605669 0)
(-0.00684386 0.000590985 0)
(-0.00764222 0.000567937 0)
(-0.00840454 0.000537851 0)
(-0.00912182 0.000501877 0)
(-0.00978648 0.000460998 0)
(-0.0103922 0.00041605 0)
(-0.0109337 0.000367738 0)
(-0.0114067 0.000316661 0)
(-0.0118075 0.000263331 0)
(-0.0121333 0.000208192 0)
(-0.0123818 0.000151638 0)
(-0.0125512 9.40262e-05 0)
(-0.0126404 3.56956e-05 0)
(-0.0126485 -2.30247e-05 0)
(-0.0125752 -8.18018e-05 0)
(-0.0124208 -0.000140289 0)
(-0.0121861 -0.000198116 0)
(-0.0118721 -0.000254872 0)
(-0.0114809 -0.000310099 0)
(-0.0110151 -0.000363276 0)
(-0.010478 -0.000413801 0)
(-0.00987377 -0.000460978 0)
(-0.00920788 -0.000503998 0)
(-0.00848677 -0.000541925 0)
(-0.00771833 -0.000573678 0)
(-0.00691196 -0.000598022 0)
(-0.00607881 -0.000613564 0)
(-0.00523194 -0.00061875 0)
(-0.00438641 -0.000611889 0)
(-0.00355942 -0.000591185 0)
(-0.00277023 -0.000554815 0)
(-0.00203993 -0.000501065 0)
(-0.00139089 -0.000428622 0)
(-0.000845628 -0.00033719 0)
(-0.000424531 -0.000229 0)
(-0.000142451 -0.000111844 0)
(-1.71072e-06 -2.42269e-06 0)
(1.70668e-05 5.24286e-05 0)
(-4.37414e-06 -3.44732e-05 0)
(-0.000109683 0.000143633 0)
(-0.000411054 0.000413689 0)
(-0.000909274 0.000698842 0)
(-0.00159555 0.000963839 0)
(-0.00245122 0.00119137 0)
(-0.00344971 0.00137456 0)
(-0.00456107 0.00151242 0)
(-0.00575497 0.00160703 0)
(-0.00700231 0.00166193 0)
(-0.00827616 0.0016813 0)
(-0.00955222 0.00166946 0)
(-0.0108089 0.00163059 0)
(-0.0120275 0.00156855 0)
(-0.0131918 0.00148683 0)
(-0.014288 0.00138852 0)
(-0.0153043 0.0012763 0)
(-0.0162309 0.00115248 0)
(-0.0170596 0.00101905 0)
(-0.0177835 0.000877689 0)
(-0.018397 0.000729878 0)
(-0.0188956 0.000576892 0)
(-0.0192757 0.00041987 0)
(-0.0195346 0.000259857 0)
(-0.0196704 9.78333e-05 0)
(-0.0196819 -6.52422e-05 0)
(-0.0195687 -0.000228407 0)
(-0.0193311 -0.000390659 0)
(-0.0189704 -0.000550929 0)
(-0.0184887 -0.000708045 0)
(-0.0178888 -0.000860699 0)
(-0.0171751 -0.00100741 0)
(-0.0163527 -0.00114649 0)
(-0.0154284 -0.00127599 0)
(-0.0144106 -0.00139366 0)
(-0.0133092 -0.00149695 0)
(-0.0121364 -0.00158291 0)
(-0.0109067 -0.00164827 0)
(-0.00963694 -0.00168936 0)
(-0.00834669 -0.00170221 0)
(-0.00705833 -0.00168261 0)
(-0.005797 -0.0016263 0)
(-0.00459039 -0.00152926 0)
(-0.00346822 -0.00138817 0)
(-0.00246125 -0.00120129 0)
(-0.00159962 -0.000969982 0)
(-0.000909842 -0.000701564 0)
(-0.000410229 -0.000413805 0)
(-0.000108949 -0.000142333 0)
(-4.15737e-06 3.56314e-05 0)
(-2.64364e-05 4.57347e-05 0)
(-0.000224638 0.000423474 0)
(-0.000696483 0.000911706 0)
(-0.00141439 0.001414 0)
(-0.00235871 0.00187994 0)
(-0.00350598 0.00228246 0)
(-0.0048245 0.00260925 0)
(-0.00627873 0.00285721 0)
(-0.00783247 0.00302861 0)
(-0.00945059 0.00312866 0)
(-0.0111001 0.00316403 0)
(-0.012751 0.00314198 0)
(-0.0143761 0.0030697 0)
(-0.0159519 0.00295406 0)
(-0.0174576 0.00280132 0)
(-0.0188754 0.00261713 0)
(-0.0201902 0.00240645 0)
(-0.0213891 0.0021736 0)
(-0.0224615 0.00192231 0)
(-0.0233984 0.00165581 0)
(-0.0241924 0.00137691 0)
(-0.0248376 0.00108808 0)
(-0.0253293 0.000791512 0)
(-0.0256639 0.000489233 0)
(-0.0258389 0.000183149 0)
(-0.0258528 -0.000124886 0)
(-0.0257052 -0.000433004 0)
(-0.0253965 -0.000739272 0)
(-0.0249285 -0.00104163 0)
(-0.0243037 -0.00133782 0)
(-0.0235264 -0.00162534 0)
(-0.0226018 -0.00190138 0)
(-0.0215371 -0.00216271 0)
(-0.020341 -0.00240566 0)
(-0.0190244 -0.00262604 0)
(-0.0176003 -0.00281908 0)
(-0.0160845 -0.00297938 0)
(-0.0144954 -0.00310093 0)
(-0.0128545 -0.00317717 0)
(-0.0111866 -0.00320107 0)
(-0.00951952 -0.00316536 0)
(-0.00788449 -0.00306292 0)
(-0.00631535 -0.00288732 0)
(-0.00484797 -0.00263377 0)
(-0.00351908 -0.00230058 0)
(-0.00236445 -0.00189151 0)
(-0.00141569 -0.00141962 0)
(-0.000695863 -0.000912711 0)
(-0.000223833 -0.000421883 0)
(-2.6141e-05 -4.4117e-05 0)
(-4.6416e-05 0.000187515 0)
(-0.000332976 0.000842694 0)
(-0.00096992 0.00160229 0)
(-0.0018995 0.00236118 0)
(-0.00308828 0.00305929 0)
(-0.00450629 0.00366217 0)
(-0.00611637 0.00415294 0)
(-0.00787801 0.00452655 0)
(-0.00975029 0.00478536 0)
(-0.0116934 0.00493619 0)
(-0.0136699 0.00498827 0)
(-0.0156452 0.00495195 0)
(-0.0175881 0.00483779 0)
(-0.019471 0.00465596 0)
(-0.0212697 0.00441595 0)
(-0.0229632 0.00412637 0)
(-0.0245336 0.00379487 0)
(-0.0259656 0.00342817 0)
(-0.0272465 0.00303213 0)
(-0.0283654 0.00261186 0)
(-0.0293136 0.00217182 0)
(-0.030084 0.00171592 0)
(-0.0306709 0.00124771 0)
(-0.03107 0.000770431 0)
(-0.0312783 0.00028714 0)
(-0.0312942 -0.000199183 0)
(-0.0311169 -0.000685541 0)
(-0.0307473 -0.00116884 0)
(-0.0301872 -0.00164577 0)
(-0.0294401 -0.00211275 0)
(-0.0285108 -0.0025658 0)
(-0.0274059 -0.00300044 0)
(-0.0261337 -0.00341159 0)
(-0.024705 -0.0037935 0)
(-0.0231325 -0.0041396 0)
(-0.0214319 -0.0044425 0)
(-0.0196217 -0.00469389 0)
(-0.0177236 -0.00488462 0)
(-0.0157628 -0.00500478 0)
(-0.0137681 -0.00504391 0)
(-0.0117717 -0.00499139 0)
(-0.00980927 -0.00483704 0)
(-0.00791946 -0.00457201 0)
(-0.00614285 -0.00419013 0)
(-0.00452096 -0.00368985 0)
(-0.00309458 -0.00307723 0)
(-0.00190078 -0.00237023 0)
(-0.000969082 -0.00160443 0)
(-0.000332023 -0.00084089 0)
(-4.60899e-05 -0.000185527 0)
(-6.30668e-05 0.000383038 0)
(-0.00042898 0.0013915 0)
(-0.00121884 0.00247541 0)
(-0.00234624 0.00352873 0)
(-0.00376323 0.00448686 0)
(-0.00543219 0.00531097 0)
(-0.00730989 0.00598123 0)
(-0.00935081 0.0064914 0)
(-0.0115097 0.0068443 0)
(-0.0137428 0.0070485 0)
(-0.0160089 0.00711596 0)
(-0.0182699 0.00706028 0)
(-0.0204914 0.00689559 0)
(-0.0226426 0.00663568 0)
(-0.0246965 0.00629354 0)
(-0.0266296 0.00588105 0)
(-0.0284217 0.00540887 0)
(-0.0300556 0.00488645 0)
(-0.0315168 0.00432206 0)
(-0.0327931 0.00372295 0)
(-0.0338746 0.00309549 0)
(-0.034753 0.00244531 0)
(-0.0354221 0.00177749 0)
(-0.0358769 0.00109669 0)
(-0.036114 0.000407332 0)
(-0.0361316 -0.000286292 0)
(-0.0359288 -0.000979871 0)
(-0.0355066 -0.00166894 0)
(-0.0348672 -0.00234877 0)
(-0.0340145 -0.0030142 0)
(-0.0329539 -0.00365954 0)
(-0.0316931 -0.0042784 0)
(-0.0302415 -0.00486358 0)
(-0.0286111 -0.00540691 0)
(-0.0268166 -0.00589915 0)
(-0.0248756 -0.00632995 0)
(-0.0228089 -0.00668774 0)
(-0.0206408 -0.0069599 0)
(-0.0183994 -0.00713284 0)
(-0.0161167 -0.0071924 0)
(-0.0138284 -0.00712439 0)
(-0.0115739 -0.0069154 0)
(-0.0093955 -0.00655402 0)
(-0.00733797 -0.00603254 0)
(-0.00544722 -0.00534926 0)
(-0.00376911 -0.0045118 0)
(-0.00234677 -0.00354147 0)
(-0.00121731 -0.00247862 0)
(-0.000427642 -0.00138923 0)
(-6.26478e-05 -0.000380401 0)
(-7.66548e-05 0.000625169 0)
(-0.000512179 0.002057 0)
(-0.00144048 0.00351632 0)
(-0.00274972 0.00490077 0)
(-0.00437805 0.00614511 0)
(-0.00627965 0.00720899 0)
(-0.00840475 0.00807147 0)
(-0.0107025 0.00872627 0)
(-0.0131234 0.0091773 0)
(-0.01562 0.00943534 0)
(-0.0181476 0.0095153 0)
(-0.0206653 0.00943432 0)
(-0.0231358 0.00921029 0)
(-0.0255258 0.00886086 0)
(-0.0278061 0.00840275 0)
(-0.0299512 0.00785139 0)
(-0.0319389 0.00722071 0)
(-0.0337507 0.0065231 0)
(-0.0353704 0.0057695 0)
(-0.036785 0.00496952 0)
(-0.0379834 0.00413163 0)
(-0.0389567 0.00326337 0)
(-0.039698 0.00237152 0)
(-0.0402017 0.00146236 0)
(-0.0404643 0.000541801 0)
(-0.0404836 -0.000384395 0)
(-0.0402588 -0.00131044 0)
(-0.0397909 -0.00223037 0)
(-0.0390824 -0.00313782 0)
(-0.0381373 -0.00402592 0)
(-0.036962 -0.00488705 0)
(-0.0355644 -0.00571273 0)
(-0.0339551 -0.00649337 0)
(-0.0321473 -0.00721817 0)
(-0.0301568 -0.00787496 0)
(-0.028003 -0.00845012 0)
(-0.0257084 -0.0089286 0)
(-0.0232996 -0.00929397 0)
(-0.020807 -0.00952874 0)
(-0.0182652 -0.00961481 0)
(-0.0157129 -0.00953415 0)
(-0.0131926 -0.00926991 0)
(-0.0107501 -0.00880785 0)
(-0.00843394 -0.00813833 0)
(-0.00629449 -0.00725886 0)
(-0.00438294 -0.00617754 0)
(-0.002749 -0.00491723 0)
(-0.00143789 -0.00352029 0)
(-0.000510262 -0.00205381 0)
(-7.60875e-05 -0.000621593 0)
(-8.78312e-05 0.000907152 0)
(-0.000584271 0.00282619 0)
(-0.00163715 0.00470952 0)
(-0.00311289 0.0064608 0)
(-0.00493687 0.00801685 0)
(-0.0070551 0.00933809 0)
(-0.00941101 0.0104043 0)
(-0.0119482 0.0112103 0)
(-0.0146126 0.011762 0)
(-0.017353 0.012073 0)
(-0.0201218 0.0121616 0)
(-0.0228751 0.0120487 0)
(-0.0255732 0.0117564 0)
(-0.0281806 0.0113063 0)
(-0.0306662 0.0107191 0)
(-0.0330028 0.010014 0)
(-0.035167 0.00920852 0)
(-0.0371386 0.0083181 0)
(-0.0389008 0.00735655 0)
(-0.0404393 0.00633604 0)
(-0.0417424 0.0052673 0)
(-0.0428007 0.00415991 0)
(-0.0436066 0.00302252 0)
(-0.0441545 0.00186311 0)
(-0.0444402 0.000689232 0)
(-0.0444616 -0.000491776 0)
(-0.0442178 -0.00167254 0)
(-0.0437097 -0.00284544 0)
(-0.04294 -0.00400241 0)
(-0.0419131 -0.00513468 0)
(-0.0406355 -0.00623258 0)
(-0.0391159 -0.00728534 0)
(-0.0373654 -0.00828082 0)
(-0.0353981 -0.00920537 0)
(-0.033231 -0.0100437 0)
(-0.0308846 -0.0107786 0)
(-0.0283831 -0.0113914 0)
(-0.0257547 -0.0118616 0)
(-0.0230319 -0.0121675 0)
(-0.0202518 -0.0122868 0)
(-0.0174554 -0.0121973 0)
(-0.0146883 -0.0118785 0)
(-0.0119997 -0.0113129 0)
(-0.00944192 -0.0104883 0)
(-0.00707001 -0.00940068 0)
(-0.00494079 -0.00805734 0)
(-0.0031108 -0.00648102 0)
(-0.00163335 -0.00471389 0)
(-0.000581678 -0.00282154 0)
(-8.70853e-05 -0.000902271 0)
(-9.72418e-05 0.00122351 0)
(-0.000647635 0.00368784 0)
(-0.00181347 0.00604127 0)
(-0.00344267 0.00819429 0)
(-0.00544921 0.0100874 0)
(-0.00777122 0.0116836 0)
(-0.0103452 0.0129647 0)
(-0.013109 0.013928 0)
(-0.0160039 0.0145824 0)
(-0.0189748 0.0149449 0)
(-0.0219708 0.0150376 0)
(-0.0249453 0.0148859 0)
(-0.0278564 0.014516 0)
(-0.0306665 0.0139542 0)
(-0.033343 0.0132252 0)
(-0.035857 0.0123523 0)
(-0.0381841 0.0113566 0)
(-0.040303 0.010257 0)
(-0.0421961 0.00907031 0)
(-0.0438484 0.00781131 0)
(-0.0452477 0.00649317 0)
(-0.046384 0.00512764 0)
(-0.0472494 0.00372532 0)
(-0.047838 0.002296 0)
(-0.0481455 0.000848941 0)
(-0.0481695 -0.000606855 0)
(-0.0479091 -0.00206234 0)
(-0.0473653 -0.00350819 0)
(-0.0465406 -0.00493448 0)
(-0.0454396 -0.00633049 0)
(-0.0440692 -0.00768436 0)
(-0.0424383 -0.00898289 0)
(-0.0405586 -0.0102112 0)
(-0.0384448 -0.0113527 0)
(-0.0361146 -0.0123887 0)
(-0.0335897 -0.0132983 0)
(-0.0308954 -0.0140588 0)
(-0.0280617 -0.0146454 0)
(-0.0251229 -0.0150319 0)
(-0.0221179 -0.0151917 0)
(-0.0190906 -0.0150979 0)
(-0.0160894 -0.0147259 0)
(-0.0131669 -0.0140544 0)
(-0.0103796 -0.0130681 0)
(-0.00778738 -0.0117604 0)
(-0.00545286 -0.0101368 0)
(-0.00343954 -0.00821849 0)
(-0.00180857 -0.00604573 0)
(-0.000644369 -0.00368115 0)
(-9.63072e-05 -0.00121692 0)
(-0.000105451 0.00157023 0)
(-0.00070476 0.00463323 0)
(-0.00197489 0.0075007 0)
(-0.00374782 0.0100898 0)
(-0.00592733 0.0123455 0)
(-0.00844402 0.0142345 0)
(-0.0112276 0.0157421 0)
(-0.0142098 0.016869 0)
(-0.0173272 0.017628 0)
(-0.0205206 0.0180402 0)
(-0.0237356 0.0181323 0)
(-0.0269229 0.0179345 0)
(-0.0300383 0.0174778 0)
(-0.0330423 0.0167931 0)
(-0.0359006 0.0159098 0)
(-0.0385833 0.0148553 0)
(-0.0410647 0.0136546 0)
(-0.0433229 0.0123302 0)
(-0.0453394 0.010902 0)
(-0.047099 0.00938774 0)
(-0.0485888 0.00780297 0)
(-0.0497987 0.00616171 0)
(-0.0507204 0.00447659 0)
(-0.0513478 0.00275928 0)
(-0.0516765 0.00102079 0)
(-0.0517039 -0.000728155 0)
(-0.0514291 -0.0024768 0)
(-0.0508528 -0.00421403 0)
(-0.0499778 -0.00592805 0)
(-0.0488086 -0.00760607 0)
(-0.047352 -0.00923397 0)
(-0.0456173 -0.010796 0)
(-0.0436165 -0.0122745 0)
(-0.0413645 -0.0136495 0)
(-0.03888 -0.0148989 0)
(-0.0361853 -0.015998 0)
(-0.033307 -0.0169196 0)
(-0.0302763 -0.0176344 0)
(-0.0271293 -0.0181116 0)
(-0.0239071 -0.0183193 0)
(-0.0206561 -0.0182261 0)
(-0.0174277 -0.0178025 0)
(-0.0142783 -0.0170228 0)
(-0.0112686 -0.015868 0)
(-0.0084636 -0.0143279 0)
(-0.0059321 -0.0124053 0)
(-0.00374444 -0.0101186 0)
(-0.00196925 -0.00750518 0)
(-0.000700924 -0.00462405 0)
(-0.000104335 -0.00156156 0)
(-0.000112936 0.00194463 0)
(-0.000758018 0.0056564 0)
(-0.00212701 0.00908031 0)
(-0.0040377 0.0121395 0)
(-0.00638457 0.0147838 0)
(-0.00909104 0.0169843 0)
(-0.01208 0.0187305 0)
(-0.0152772 0.0200278 0)
(-0.018614 0.0208933 0)
(-0.0220268 0.0213535 0)
(-0.0254578 0.0214402 0)
(-0.0288546 0.0211887 0)
(-0.0321706 0.0206356 0)
(-0.0353647 0.0198167 0)
(-0.0384007 0.0187664 0)
(-0.0412477 0.0175166 0)
(-0.0438791 0.0160964 0)
(-0.0462724 0.0145319 0)
(-0.0484085 0.0128465 0)
(-0.0502717 0.0110608 0)
(-0.051849 0.00919293 0)
(-0.0531301 0.00725927 0)
(-0.0541065 0.0052745 0)
(-0.0547719 0.00325218 0)
(-0.0551219 0.00120512 0)
(-0.0551538 -0.000854246 0)
(-0.0548664 -0.00291342 0)
(-0.0542604 -0.0049595 0)
(-0.0533384 -0.00697876 0)
(-0.0521048 -0.00895631 0)
(-0.0505665 -0.0108757 0)
(-0.0487328 -0.0127185 0)
(-0.0466156 -0.0144641 0)
(-0.0442304 -0.0160893 0)
(-0.0415962 -0.017568 0)
(-0.038736 -0.0188715 0)
(-0.0356775 -0.019968 0)
(-0.032453 -0.0208233 0)
(-0.0291006 -0.0214014 0)
(-0.0256633 -0.0216651 0)
(-0.0221904 -0.0215775 0)
(-0.0187366 -0.0211039 0)
(-0.015362 -0.0202137 0)
(-0.0121321 -0.0188829 0)
(-0.00911723 -0.0170975 0)
(-0.00639258 -0.0148562 0)
(-0.00403533 -0.0121741 0)
(-0.00212124 -0.0090852 0)
(-0.000753807 -0.00564453 0)
(-0.000111663 -0.00193357 0)
(-0.000120101 0.00234527 0)
(-0.000809588 0.0067541 0)
(-0.00227521 0.0107762 0)
(-0.00432157 0.0143396 0)
(-0.0068344 0.0173992 0)
(-0.00973015 0.0199305 0)
(-0.0129249 0.0219284 0)
(-0.0163382 0.0234031 0)
(-0.0198958 0.0243777 0)
(-0.0235297 0.0248841 0)
(-0.0271783 0.0249603 0)
(-0.0307859 0.0246475 0)
(-0.0343036 0.023988 0)
(-0.037688 0.0230233 0)
(-0.0409017 0.021793 0)
(-0.0439126 0.0203339 0)
(-0.0466932 0.0186794 0)
(-0.0492204 0.0168597 0)
(-0.0514749 0.0149015 0)
(-0.0534407 0.0128284 0)
(-0.0551047 0.0106614 0)
(-0.0564563 0.0084192 0)
(-0.0574871 0.00611851 0)
(-0.0581908 0.00377482 0)
(-0.0585629 0.00140269 0)
(-0.0586003 -0.000983712 0)
(-0.058302 -0.00337018 0)
(-0.0576684 -0.00574203 0)
(-0.0567018 -0.00808362 0)
(-0.0554065 -0.0103779 0)
(-0.0537892 -0.0126061 0)
(-0.0518589 -0.014747 0)
(-0.0496277 -0.0167769 0)
(-0.0471111 -0.0186691 0)
(-0.0443284 -0.0203935 0)
(-0.0413032 -0.0219169 0)
(-0.0380641 -0.0232027 0)
(-0.0346449 -0.0242115 0)
(-0.031085 -0.0249015 0)
(-0.0274302 -0.0252296 0)
(-0.0237323 -0.0251531 0)
(-0.0200496 -0.0246311 0)
(-0.0164466 -0.0236275 0)
(-0.0129938 -0.0221128 0)
(-0.00976721 -0.020068 0)
(-0.00684853 -0.0174875 0)
(-0.00432195 -0.0143822 0)
(-0.00227019 -0.0107825 0)
(-0.000805287 -0.00673971 0)
(-0.000118706 -0.00233164 0)
(-0.000127286 0.0027718 0)
(-0.000861438 0.0079257 0)
(-0.00242456 0.0125879 0)
(-0.00460835 0.0166905 0)
(-0.00728997 0.0201928 0)
(-0.0103789 0.0230754 0)
(-0.0137843 0.0253386 0)
(-0.0174193 0.0269988 0)
(-0.0212038 0.0280851 0)
(-0.0250649 0.0286361 0)
(-0.0289369 0.0286965 0)
(-0.0327608 0.0283142 0)
(-0.0364848 0.0275378 0)
(-0.0400638 0.026415 0)
(-0.0434586 0.0249911 0)
(-0.046636 0.0233082 0)
(-0.0495679 0.0214043 0)
(-0.0522306 0.0193138 0)
(-0.0546047 0.0170669 0)
(-0.056674 0.0146906 0)
(-0.0584253 0.0122086 0)
(-0.0598483 0.00964179 0)
(-0.0609345 0.00700916 0)
(-0.0616775 0.00432801 0)
(-0.0620728 0.00161465 0)
(-0.0621173 -0.00111509 0)
(-0.0618096 -0.00384536 0)
(-0.0611501 -0.00655972 0)
(-0.0601406 -0.00924064 0)
(-0.0587852 -0.011869 0)
(-0.05709 -0.0144234 0)
(-0.0550641 -0.0168801 0)
(-0.0527191 -0.019212 0)
(-0.0500705 -0.0213887 0)
(-0.0471378 -0.023376 0)
(-0.0439451 -0.0251359 0)
(-0.0405218 -0.0266265 0)
(-0.0369028 -0.0278026 0)
(-0.0331296 -0.0286163 0)
(-0.0292502 -0.029018 0)
(-0.0253197 -0.0289583 0)
(-0.0214002 -0.0283898 0)
(-0.0175608 -0.0272697 0)
(-0.0138774 -0.0255624 0)
(-0.0104323 -0.0232434 0)
(-0.00731392 -0.0203019 0)
(-0.00461372 -0.0167444 0)
(-0.0024214 -0.0125975 0)
(-0.000857421 -0.00790945 0)
(-0.000125817 -0.00275558 0)
(-0.000134785 0.00322484 0)
(-0.000915349 0.00917295 0)
(-0.00257974 0.0145185 0)
(-0.00490644 0.0191965 0)
(-0.00776388 0.0231702 0)
(-0.0110544 0.0264257 0)
(-0.0146798 0.0289688 0)
(-0.0185464 0.0308227 0)
(-0.0225681 0.0320236 0)
(-0.0266667 0.0326174 0)
(-0.0307719 0.0326564 0)
(-0.0348211 0.0321957 0)
(-0.0387598 0.0312911 0)
(-0.0425405 0.0299972 0)
(-0.0461227 0.0283654 0)
(-0.049472 0.0264433 0)
(-0.0525595 0.0242741 0)
(-0.0553614 0.0218966 0)
(-0.0578579 0.0193449 0)
(-0.0600332 0.0166492 0)
(-0.061874 0.0138358 0)
(-0.0633701 0.0109284 0)
(-0.0645134 0.0079478 0)
(-0.0652974 0.00491318 0)
(-0.0657175 0.00184251 0)
(-0.0657707 -0.00124683 0)
(-0.0654554 -0.00433739 0)
(-0.0647713 -0.00741108 0)
(-0.0637203 -0.0104485 0)
(-0.0623056 -0.0134285 0)
(-0.0605331 -0.0163272 0)
(-0.0584112 -0.019118 0)
(-0.0559511 -0.0217705 0)
(-0.0531683 -0.0242504 0)
(-0.0500819 -0.026519 0)
(-0.0467167 -0.0285331 0)
(-0.0431024 -0.0302453 0)
(-0.0392757 -0.0316039 0)
(-0.0352796 -0.0325542 0)
(-0.0311649 -0.0330397 0)
(-0.0269899 -0.0330033 0)
(-0.0228211 -0.0323903 0)
(-0.0187325 -0.0311505 0)
(-0.0148061 -0.0292415 0)
(-0.0111307 -0.0266323 0)
(-0.00780225 -0.0233066 0)
(-0.00491962 -0.0192662 0)
(-0.00257986 -0.0145342 0)
(-0.000912085 -0.00915613 0)
(-0.000133301 -0.00320621 0)
(-0.000142854 0.00370588 0)
(-0.00097295 0.0104999 0)
(-0.00274515 0.0165742 0)
(-0.00522382 0.0218656 0)
(-0.00826816 0.0263413 0)
(-0.0117729 0.0299922 0)
(-0.0156322 0.0328308 0)
(-0.0197448 0.0348872 0)
(-0.0240181 0.0362056 0)
(-0.0283682 0.03684 0)
(-0.0327199 0.0368511 0)
(-0.0370069 0.0363023 0)
(-0.0411715 0.0352574 0)
(-0.0451639 0.033778 0)
(-0.048942 0.0319227 0)
(-0.0524704 0.0297451 0)
(-0.0557197 0.0272938 0)
(-0.0586658 0.0246123 0)
(-0.0612892 0.0217388 0)
(-0.0635738 0.0187068 0)
(-0.0655071 0.0155457 0)
(-0.067079 0.0122812 0)
(-0.0682816 0.00893644 0)
(-0.0691087 0.00553223 0)
(-0.0695558 0.00208806 0)
(-0.0696196 -0.00137721 0)
(-0.0692982 -0.00484471 0)
(-0.0685913 -0.00829479 0)
(-0.0674998 -0.0117063 0)
(-0.0660265 -0.0150561 0)
(-0.0641766 -0.0183179 0)
(-0.0619576 -0.0214621 0)
(-0.0593803 -0.0244549 0)
(-0.0564596 -0.027258 0)
(-0.0532145 -0.0298278 0)
(-0.0496696 -0.0321156 0)
(-0.0458557 -0.0340677 0)
(-0.0418104 -0.0356257 0)
(-0.0375788 -0.0367273 0)
(-0.0332144 -0.0373079 0)
(-0.0287793 -0.0373023 0)
(-0.0243443 -0.0366474 0)
(-0.0199894 -0.0352848 0)
(-0.0158026 -0.0331644 0)
(-0.0118805 -0.0302481 0)
(-0.00832662 -0.0265135 0)
(-0.00524828 -0.0219577 0)
(-0.0027503 -0.0166001 0)
(-0.000971021 -0.0104846 0)
(-0.000141428 -0.00368529 0)
(-0.000151728 0.00421723 0)
(-0.00103577 0.0119126 0)
(-0.00292494 0.0187643 0)
(-0.00556815 0.0247099 0)
(-0.00881446 0.0297199 0)
(-0.0125504 0.0337906 0)
(-0.0166615 0.0369408 0)
(-0.0210386 0.0392088 0)
(-0.0255819 0.0406472 0)
(-0.0302012 0.0413195 0)
(-0.0348162 0.0412953 0)
(-0.0393563 0.0406474 0)
(-0.0437604 0.0394483 0)
(-0.0479766 0.0377679 0)
(-0.051961 0.035672 0)
(-0.0556774 0.0332211 0)
(-0.0590959 0.0304697 0)
(-0.0621923 0.0274662 0)
(-0.0649474 0.024253 0)
(-0.0673457 0.0208672 0)
(-0.0693749 0.0173412 0)
(-0.0710256 0.013703 0)
(-0.0722902 0.00997754 0)
(-0.0731629 0.0061874 0)
(-0.0736391 0.00235341 0)
(-0.0737157 -0.00150431 0)
(-0.0733903 -0.00536563 0)
(-0.0726622 -0.00920951 0)
(-0.0715315 -0.0130132 0)
(-0.0700004 -0.0167516 0)
(-0.0680729 -0.0203962 0)
(-0.0657557 -0.0239143 0)
(-0.0630587 -0.0272686 0)
(-0.0599958 -0.0304164 0)
(-0.0565858 -0.033309 0)
(-0.0528532 -0.035892 0)
(-0.0488291 -0.0381047 0)
(-0.0445523 -0.039881 0)
(-0.0400699 -0.0411504 0)
(-0.0354384 -0.0418395 0)
(-0.0307237 -0.0418737 0)
(-0.0260018 -0.0411805 0)
(-0.0213586 -0.0396924 0)
(-0.0168896 -0.0373506 0)
(-0.0126992 -0.0341093 0)
(-0.00889995 -0.0299394 0)
(-0.00560817 -0.024833 0)
(-0.00293728 -0.0188063 0)
(-0.00103589 -0.0119019 0)
(-0.00015045 -0.00419545 0)
(-0.000161628 0.00476193 0)
(-0.00110528 0.0134194 0)
(-0.00312319 0.0211012 0)
(-0.00594695 0.027745 0)
(-0.00941428 0.0333242 0)
(-0.0134025 0.0378403 0)
(-0.0177877 0.0413193 0)
(-0.0224519 0.0438079 0)
(-0.0272874 0.0453685 0)
(-0.0321972 0.0460746 0)
(-0.037095 0.0460064 0)
(-0.041906 0.0452467 0)
(-0.0465655 0.0438778 0)
(-0.0510191 0.0419788 0)
(-0.0552215 0.0396236 0)
(-0.0591356 0.0368801 0)
(-0.0627312 0.0338089 0)
(-0.0659845 0.030464 0)
(-0.0688767 0.0268923 0)
(-0.0713928 0.0231344 0)
(-0.0735217 0.0192257 0)
(-0.0752542 0.0151966 0)
(-0.0765836 0.0110738 0)
(-0.0775044 0.0068812 0)
(-0.0780124 0.00264092 0)
(-0.0781041 -0.00162593 0)
(-0.0777771 -0.00589815 0)
(-0.0770299 -0.0101536 0)
(-0.0758619 -0.0143681 0)
(-0.074274 -0.0185147 0)
(-0.0722693 -0.0225626 0)
(-0.069853 -0.0264764 0)
(-0.0670338 -0.0302149 0)
(-0.0638246 -0.0337309 0)
(-0.0602433 -0.0369705 0)
(-0.056314 -0.0398724 0)
(-0.0520681 -0.0423687 0)
(-0.0475453 -0.044385 0)
(-0.0427948 -0.0458414 0)
(-0.0378759 -0.0466544 0)
(-0.0328589 -0.0467393 0)
(-0.0278253 -0.0460129 0)
(-0.0228678 -0.0443973 0)
(-0.0180898 -0.0418242 0)
(-0.0136048 -0.0382389 0)
(-0.00953532 -0.0336053 0)
(-0.00600778 -0.0279103 0)
(-0.00314539 -0.021167 0)
(-0.00110835 -0.0134174 0)
(-0.00016061 -0.00474013 0)
(-0.000172774 0.0053438 0)
(-0.00118298 0.0150303 0)
(-0.00334403 0.0236003 0)
(-0.00636782 0.0309902 0)
(-0.0100792 0.0371762 0)
(-0.014345 0.0421651 0)
(-0.0190309 0.0459906 0)
(-0.0240089 0.0487088 0)
(-0.0291624 0.0503927 0)
(-0.0343869 0.0511273 0)
(-0.0395899 0.0510044 0)
(-0.0446916 0.0501181 0)
(-0.0496238 0.0485616 0)
(-0.0543297 0.0464241 0)
(-0.0587625 0.0437886 0)
(-0.0628843 0.040731 0)
(-0.0666652 0.0373188 0)
(-0.0700818 0.0336117 0)
(-0.073116 0.0296614 0)
(-0.0757541 0.0255123 0)
(-0.0779857 0.0212026 0)
(-0.079803 0.016765 0)
(-0.0811999 0.0122278 0)
(-0.0821714 0.00761623 0)
(-0.0827137 0.00295316 0)
(-0.0828233 -0.00173949 0)
(-0.0824975 -0.00643981 0)
(-0.0817339 -0.0111247 0)
(-0.080531 -0.0157691 0)
(-0.0788885 -0.0203442 0)
(-0.0768077 -0.0248172 0)
(-0.0742924 -0.0291497 0)
(-0.0713496 -0.0332969 0)
(-0.0679905 -0.0372069 0)
(-0.0642319 -0.0408197 0)
(-0.060097 -0.0440674 0)
(-0.0556172 -0.0468735 0)
(-0.0508329 -0.0491545 0)
(-0.0457951 -0.0508201 0)
(-0.0405664 -0.0517756 0)
(-0.0352213 -0.0519246 0)
(-0.0298476 -0.051172 0)
(-0.0245453 -0.0494282 0)
(-0.0194268 -0.046614 0)
(-0.0146159 -0.042665 0)
(-0.0102463 -0.0375373 0)
(-0.00645596 -0.0312122 0)
(-0.00337939 -0.0237 0)
(-0.00119009 -0.0150429 0)
(-0.000172158 -0.00532362 0)
(-0.000185401 0.00596741 0)
(-0.00127041 0.0167577 0)
(-0.00359174 0.0262801 0)
(-0.00683871 0.0344687 0)
(-0.0108214 0.0413023 0)
(-0.0153946 0.0467933 0)
(-0.0204119 0.0509835 0)
(-0.0257343 0.0539396 0)
(-0.0312351 0.0557467 0)
(-0.0368014 0.0565023 0)
(-0.0423342 0.0563114 0)
(-0.0477482 0.0552809 0)
(-0.0529716 0.0535161 0)
(-0.0579451 0.0511176 0)
(-0.0626205 0.0481783 0)
(-0.0669599 0.0447829 0)
(-0.0709335 0.0410065 0)
(-0.074519 0.0369149 0)
(-0.0776995 0.0325647 0)
(-0.0804627 0.0280043 0)
(-0.0827997 0.0232747 0)
(-0.0847039 0.0184108 0)
(-0.0861703 0.0134422 0)
(-0.0871949 0.00839509 0)
(-0.0877742 0.00329292 0)
(-0.0879048 -0.00184204 0)
(-0.0875834 -0.00698752 0)
(-0.0868071 -0.01212 0)
(-0.0855729 -0.0172134 0)
(-0.0838791 -0.0222379 0)
(-0.0817249 -0.0271586 0)
(-0.0791122 -0.0319344 0)
(-0.0760456 -0.0365168 0)
(-0.0725345 -0.0408487 0)
(-0.0685936 -0.044864 0)
(-0.0642451 -0.0484872 0)
(-0.0595196 -0.051633 0)
(-0.054458 -0.0542072 0)
(-0.0491129 -0.0561082 0)
(-0.0435499 -0.0572285 0)
(-0.0378485 -0.0574584 0)
(-0.0321027 -0.0566893 0)
(-0.0264209 -0.0548184 0)
(-0.0209257 -0.051754 0)
(-0.0157523 -0.0474208 0)
(-0.0110473 -0.0417663 0)
(-0.00696222 -0.0347657 0)
(-0.0036444 -0.0264267 0)
(-0.00128297 -0.0167925 0)
(-0.000185367 -0.00595114 0)
(-0.000199764 0.00663817 0)
(-0.00136929 0.0186161 0)
(-0.00387101 0.0291622 0)
(-0.0073682 0.0382076 0)
(-0.0116537 0.0457331 0)
(-0.0165686 0.0517571 0)
(-0.0219525 0.0563307 0)
(-0.0276537 0.0595322 0)
(-0.0335345 0.0614602 0)
(-0.0394725 0.0622267 0)
(-0.0453614 0.0619514 0)
(-0.0511104 0.0607557 0)
(-0.0566438 0.0587586 0)
(-0.0619 0.0560731 0)
(-0.0668299 0.0528036 0)
(-0.0713955 0.0490441 0)
(-0.0755681 0.044878 0)
(-0.0793266 0.0403778 0)
(-0.082656 0.0356052 0)
(-0.085546 0.0306126 0)
(-0.0879896 0.0254439 0)
(-0.0899818 0.0201357 0)
(-0.0915191 0.0147189 0)
(-0.0925987 0.00922019 0)
(-0.0932175 0.00366311 0)
(-0.0933724 -0.00193014 0)
(-0.0930596 -0.00753741 0)
(-0.0922752 -0.0131352 0)
(-0.0910148 -0.018697 0)
(-0.0892746 -0.0241921 0)
(-0.0870518 -0.029584 0)
(-0.0843453 -0.0348289 0)
(-0.0811573 -0.0398746 0)
(-0.0774941 -0.0446589 0)
(-0.0733682 -0.0491092 0)
(-0.0687996 -0.0531415 0)
(-0.0638177 -0.0566608 0)
(-0.0584635 -0.0595614 0)
(-0.0527907 -0.0617284 0)
(-0.0468679 -0.0630404 0)
(-0.0407795 -0.0633723 0)
(-0.0346265 -0.0626 0)
(-0.0285266 -0.0606056 0)
(-0.0226134 -0.0572831 0)
(-0.0170356 -0.0525449 0)
(-0.0119544 -0.0463285 0)
(-0.00753702 -0.0386028 0)
(-0.00394611 -0.0293727 0)
(-0.00138906 -0.0186829 0)
(-0.000200546 -0.00662884 0)
(-0.000216157 0.00736237 0)
(-0.00148153 0.0206225 0)
(-0.00418704 0.0322721 0)
(-0.00796575 0.0422383 0)
(-0.0125904 0.0505038 0)
(-0.017886 0.0570936 0)
(-0.0236762 0.0620691 0)
(-0.0297946 0.0655219 0)
(-0.036091 0.0675659 0)
(-0.0424329 0.0683297 0)
(-0.0487057 0.0679495 0)
(-0.0548128 0.0665635 0)
(-0.0606747 0.0643059 0)
(-0.0662277 0.0613038 0)
(-0.0714222 0.0576739 0)
(-0.0762208 0.0535212 0)
(-0.0805963 0.0489377 0)
(-0.0845297 0.0440029 0)
(-0.0880085 0.0387842 0)
(-0.0910249 0.0333379 0)
(-0.0935742 0.0277105 0)
(-0.095654 0.0219404 0)
(-0.0972625 0.0160592 0)
(-0.0983982 0.0100935 0)
(-0.0990589 0.00406669 0)
(-0.0992415 -0.00199986 0)
(-0.0989421 -0.00808466 0)
(-0.0981555 -0.0141647 0)
(-0.0968757 -0.0202138 0)
(-0.0950965 -0.0262008 0)
(-0.0928123 -0.0320878 0)
(-0.0900188 -0.0378289 0)
(-0.0867145 -0.0433679 0)
(-0.0829025 -0.0486377 0)
(-0.0785917 -0.0535586 0)
(-0.0737992 -0.0580378 0)
(-0.0685527 -0.0619692 0)
(-0.062892 -0.0652344 0)
(-0.0568718 -0.067704 0)
(-0.0505633 -0.06924 0)
(-0.0440557 -0.0697003 0)
(-0.0374576 -0.0689428 0)
(-0.0308967 -0.066832 0)
(-0.0245195 -0.0632456 0)
(-0.0184895 -0.0580815 0)
(-0.0129852 -0.0512661 0)
(-0.00819219 -0.0427607 0)
(-0.00429099 -0.0325676 0)
(-0.00151071 -0.020734 0)
(-0.000218057 -0.00736403 0)
(-0.000234923 0.00814739 0)
(-0.00160932 0.0227965 0)
(-0.00454572 0.0356391 0)
(-0.00864198 0.0465968 0)
(-0.0136473 0.0556546 0)
(-0.0193676 0.0628445 0)
(-0.0256083 0.0682399 0)
(-0.0321862 0.0719475 0)
(-0.0389369 0.074099 0)
(-0.0457164 0.0748418 0)
(-0.0524015 0.0743316 0)
(-0.0588894 0.0727249 0)
(-0.065097 0.0701737 0)
(-0.0709589 0.0668208 0)
(-0.0764255 0.0627968 0)
(-0.0814608 0.0582182 0)
(-0.08604 0.053187 0)
(-0.0901469 0.04779 0)
(-0.0937723 0.0421004 0)
(-0.0969117 0.0361784 0)
(-0.0995636 0.0300731 0)
(-0.101728 0.023824 0)
(-0.103407 0.0174631 0)
(-0.104598 0.0110166 0)
(-0.105303 0.00450656 0)
(-0.105517 -0.00204675 0)
(-0.105237 -0.00862334 0)
(-0.104455 -0.0152015 0)
(-0.103165 -0.0217558 0)
(-0.101357 -0.0282554 0)
(-0.0990216 -0.0346616 0)
(-0.0961514 -0.0409266 0)
(-0.0927403 -0.0469908 0)
(-0.0887868 -0.0527817 0)
(-0.0842954 -0.0582124 0)
(-0.0792795 -0.0631805 0)
(-0.0737635 -0.0675681 0)
(-0.0677853 -0.0712424 0)
(-0.0613997 -0.0740574 0)
(-0.05468 -0.0758568 0)
(-0.0477204 -0.0764784 0)
(-0.0406371 -0.0757596 0)
(-0.0335689 -0.0735443 0)
(-0.0266765 -0.0696911 0)
(-0.0201407 -0.0640811 0)
(-0.01416 -0.0566273 0)
(-0.00894121 -0.0472827 0)
(-0.0046865 -0.0360465 0)
(-0.0016507 -0.022969 0)
(-0.000238331 -0.00816531 0)
(-0.000256474 0.00900179 0)
(-0.00175521 0.025161 0)
(-0.00495384 0.0392968 0)
(-0.00940896 0.0513246 0)
(-0.014842 0.061231 0)
(-0.0210366 0.0690565 0)
(-0.0277767 0.0748883 0)
(-0.0348599 0.078851 0)
(-0.0421058 0.0810966 0)
(-0.0493577 0.0817946 0)
(-0.0564831 0.0811228 0)
(-0.0633731 0.0792592 0)
(-0.069941 0.0763755 0)
(-0.0761206 0.0726324 0)
(-0.0818629 0.068176 0)
(-0.0871344 0.0631357 0)
(-0.0919135 0.0576237 0)