/*--------------------------------*- C++ -*----------------------------------*\
  =========                 |
  \\      /  F ield         | OpenFOAM: The Open Source CFD Toolbox
   \\    /   O peration     | Website:  https://openfoam.org
    \\  /    A nd           | Version:  7
     \\/     M anipulation  |
\*---------------------------------------------------------------------------*/
FoamFile
{
    version     2.0;
    format      ascii;
    class       surfaceScalarField;
    location    "0.044";
    object      phi;
}
// * * * * * * * * * * * * * * * * * * * * * * * * * * * * * * * * * * * * * //

dimensions      [0 3 -1 0 0 0 0];

internalField   nonuniform List<scalar> 
4900
(
-5.55567e-06
5.55568e-06
-1.01613e-05
4.60567e-06
-1.29489e-05
2.78753e-06
-1.46686e-05
1.71977e-06
-1.57704e-05
1.10179e-06
-1.65083e-05
7.37901e-07
-1.70278e-05
5.19449e-07
-1.74107e-05
3.82955e-07
-1.77038e-05
2.93101e-07
-1.79347e-05
2.30848e-07
-1.81204e-05
1.85762e-07
-1.82723e-05
1.51874e-07
-1.83979e-05
1.25598e-07
-1.85026e-05
1.04673e-07
-1.85902e-05
8.76118e-08
-1.86636e-05
7.33956e-08
-1.87249e-05
6.13061e-08
-1.87757e-05
5.08214e-08
-1.88173e-05
4.1553e-08
-1.88505e-05
3.32048e-08
-1.8876e-05
2.55458e-08
-1.88944e-05
1.83912e-08
-1.8906e-05
1.1589e-08
-1.8911e-05
5.01077e-09
-1.89096e-05
-1.45766e-09
-1.89016e-05
-7.91879e-09
-1.88872e-05
-1.44738e-08
-1.8866e-05
-2.12234e-08
-1.88377e-05
-2.82757e-08
-1.88019e-05
-3.57514e-08
-1.87581e-05
-4.3792e-08
-1.87056e-05
-5.25697e-08
-1.86433e-05
-6.23008e-08
-1.857e-05
-7.32651e-08
-1.84842e-05
-8.58337e-08
-1.83837e-05
-1.00511e-07
-1.82657e-05
-1.18e-07
-1.81263e-05
-1.39308e-07
-1.79604e-05
-1.65925e-07
-1.77603e-05
-2.00135e-07
-1.75147e-05
-2.45591e-07
-1.72063e-05
-3.0838e-07
-1.68072e-05
-3.99078e-07
-1.62705e-05
-5.3672e-07
-1.55147e-05
-7.55771e-07
-1.43989e-05
-1.11589e-06
-1.26834e-05
-1.71544e-06
-9.94701e-06
-2.73641e-06
-5.4528e-06
-4.49421e-06
-5.4528e-06
-1.19307e-08
5.56761e-06
-2.13009e-06
6.72384e-06
-4.85612e-06
5.51355e-06
-7.2716e-06
4.13525e-06
-9.20752e-06
3.03771e-06
-1.07167e-05
2.24707e-06
-1.18925e-05
1.69524e-06
-1.2818e-05
1.30845e-06
-1.35566e-05
1.03175e-06
-1.41545e-05
8.28677e-07
-1.46444e-05
6.75662e-07
-1.50499e-05
5.5743e-07
-1.53882e-05
4.63911e-07
-1.56719e-05
3.88317e-07
-1.59102e-05
3.25956e-07
-1.61103e-05
2.73506e-07
-1.62776e-05
2.28561e-07
-1.64161e-05
1.89338e-07
-1.6529e-05
1.54489e-07
-1.66188e-05
1.22975e-07
-1.66872e-05
9.39737e-08
-1.67357e-05
6.68249e-08
-1.67651e-05
4.09801e-08
-1.6776e-05
1.59717e-08
-1.67689e-05
-8.61239e-09
-1.67436e-05
-3.31525e-08
-1.67001e-05
-5.80132e-08
-1.66377e-05
-8.35635e-08
-1.65558e-05
-1.10195e-07
-1.64532e-05
-1.38342e-07
-1.63285e-05
-1.68511e-07
-1.61798e-05
-2.01311e-07
-1.60046e-05
-2.37497e-07
-1.57998e-05
-2.78036e-07
-1.55615e-05
-3.24189e-07
-1.52843e-05
-3.77637e-07
-1.49617e-05
-4.40673e-07
-1.45845e-05
-5.16478e-07
-1.41408e-05
-6.09573e-07
-1.36145e-05
-7.26515e-07
-1.2983e-05
-8.77024e-07
-1.22156e-05
-1.07578e-06
-1.12695e-05
-1.34519e-06
-1.00868e-05
-1.71944e-06
-8.59354e-06
-2.24903e-06
-6.70971e-06
-2.99972e-06
-4.39584e-06
-4.02931e-06
-1.82038e-06
-5.31186e-06
1.23632e-07
-6.43823e-06
-5.32916e-06
1.03287e-06
4.53474e-06
5.48922e-07
7.20778e-06
-9.87564e-07
7.05003e-06
-2.87925e-06
6.02694e-06
-4.73249e-06
4.89096e-06
-6.38695e-06
3.90152e-06
-7.80334e-06
3.11164e-06
-8.9949e-06
2.5e-06
-9.99211e-06
2.02896e-06
-1.08273e-05
1.66383e-06
-1.15289e-05
1.37729e-06
-1.21205e-05
1.149e-06
-1.26207e-05
9.64157e-07
-1.30444e-05
8.11991e-07
-1.3403e-05
6.84631e-07
-1.37058e-05
5.76256e-07
-1.39597e-05
4.82504e-07
-1.41705e-05
4.00057e-07
-1.43423e-05
3.26351e-07
-1.44787e-05
2.59371e-07
-1.45823e-05
1.97506e-07
-1.46549e-05
1.3944e-07
-1.4698e-05
8.40728e-08
-1.47124e-05
3.04583e-08
-1.46988e-05
-2.22411e-08
-1.46572e-05
-7.47984e-08
-1.45872e-05
-1.27955e-07
-1.44883e-05
-1.82458e-07
-1.43594e-05
-2.39093e-07
-1.41991e-05
-2.98725e-07
-1.40052e-05
-3.62348e-07
-1.37754e-05
-4.31139e-07
-1.35063e-05
-5.06541e-07
-1.3194e-05
-5.90362e-07
-1.28333e-05
-6.84912e-07
-1.24177e-05
-7.93201e-07
-1.19392e-05
-9.19203e-07
-1.13874e-05
-1.06824e-06
-1.07495e-05
-1.24752e-06
-1.00091e-05
-1.46689e-06
-9.1463e-06
-1.73984e-06
-8.13735e-06
-2.08473e-06
-6.95658e-06
-2.52595e-06
-5.58216e-06
-3.09386e-06
-4.01072e-06
-3.82047e-06
-2.28905e-06
-4.72139e-06
-5.74531e-07
-5.74383e-06
7.65275e-07
-6.65166e-06
1.0871e-06
-6.76005e-06
-4.24207e-06
9.07099e-07
3.62765e-06
1.23164e-06
6.88324e-06
6.5025e-07
7.63143e-06
-5.11319e-07
7.18851e-06
-1.92433e-06
6.30397e-06
-3.37075e-06
5.34794e-06
-4.7338e-06
4.47469e-06
-5.96393e-06
3.73013e-06
-7.04876e-06
3.11379e-06
-7.99385e-06
2.60892e-06
-8.81196e-06
2.1954e-06
-9.5177e-06
1.85474e-06
-1.01251e-05
1.57151e-06
-1.06464e-05
1.33338e-06
-1.10924e-05
1.13063e-06
-1.14719e-05
9.55688e-07
-1.1792e-05
8.02628e-07
-1.20587e-05
6.66778e-07
-1.22768e-05
5.44423e-07
-1.245e-05
4.32581e-07
-1.25813e-05
3.28816e-07
-1.2673e-05
2.31111e-07
-1.27267e-05
1.37756e-07
-1.27435e-05
4.72711e-08
-1.2724e-05
-4.16655e-08
-1.26686e-05
-1.30273e-07
-1.25768e-05
-2.1972e-07
-1.24481e-05
-3.11176e-07
-1.22813e-05
-4.05859e-07
-1.2075e-05
-5.05092e-07
-1.18269e-05
-6.10372e-07
-1.15346e-05
-7.2344e-07
-1.11948e-05
-8.46386e-07
-1.08034e-05
-9.81765e-07
-1.03555e-05
-1.13276e-06
-9.84534e-06
-1.30339e-06
-9.26578e-06
-1.49876e-06
-8.60861e-06
-1.72541e-06
-7.86446e-06
-1.99167e-06
-7.02323e-06
-2.30812e-06
-6.07519e-06
-2.68788e-06
-5.01351e-06
-3.14641e-06
-3.8393e-06
-3.70016e-06
-2.57125e-06
-4.36191e-06
-1.26235e-06
-5.12937e-06
-2.49782e-08
-5.95877e-06
9.42567e-07
-6.71138e-06
1.34865e-06
-7.05774e-06
9.16597e-07
-6.328e-06
-3.32547e-06
6.72877e-07
2.95477e-06
1.24781e-06
6.30831e-06
1.23252e-06
7.64672e-06
6.67552e-07
7.75347e-06
-2.59865e-07
7.23139e-06
-1.36764e-06
6.45571e-06
-2.52368e-06
5.63074e-06
-3.64693e-06
4.85338e-06
-4.69415e-06
4.16101e-06
-5.64627e-06
3.56104e-06
-6.49826e-06
3.04739e-06
-7.25255e-06
2.60903e-06
-7.91507e-06
2.23403e-06
-8.49304e-06
1.91134e-06
-8.99375e-06
1.63134e-06
-9.424e-06
1.38594e-06
-9.78983e-06
1.16846e-06
-1.00964e-05
9.73383e-07
-1.03482e-05
7.96188e-07
-1.05487e-05
6.33118e-07
-1.0701e-05
4.81041e-07
-1.08072e-05
3.37307e-07
-1.0869e-05
1.9964e-07
-1.08878e-05
6.60463e-08
-1.08642e-05
-6.52661e-08
-1.07985e-05
-1.95954e-07
-1.06907e-05
-3.27603e-07
-1.054e-05
-4.61785e-07
-1.03458e-05
-6.0012e-07
-1.01065e-05
-7.44339e-07
-9.82055e-06
-8.9636e-07
-9.48562e-06
-1.05837e-06
-9.09909e-06
-1.23292e-06
-8.65782e-06
-1.42304e-06
-8.15819e-06
-1.63238e-06
-7.5962e-06
-1.86539e-06
-6.96755e-06
-2.12741e-06
-6.26803e-06
-2.42493e-06
-5.49413e-06
-2.76558e-06
-4.6442e-06
-3.15805e-06
-3.7206e-06
-3.61148e-06
-2.73309e-06
-4.13392e-06
-1.7045e-06
-4.72874e-06
-6.79047e-07
-5.38737e-06
2.66936e-07
-6.07535e-06
1.01542e-06
-6.70725e-06
1.40986e-06
-7.10581e-06
1.29762e-06
-6.94551e-06
6.66476e-07
-5.69685e-06
-2.65899e-06
4.81818e-07
2.47295e-06
1.08134e-06
5.70878e-06
1.35236e-06
7.3757e-06
1.19412e-06
7.91172e-06
6.73963e-07
7.75154e-06
-8.98409e-08
7.21952e-06
-9.85588e-07
6.52649e-06
-1.92825e-06
5.79605e-06
-2.86058e-06
5.09334e-06
-3.74761e-06
4.44806e-06
-4.57012e-06
3.8699e-06
-5.31917e-06
3.35808e-06
-5.99212e-06
2.90698e-06
-6.58991e-06
2.50914e-06
-7.1154e-06
2.15683e-06
-7.57228e-06
1.84281e-06
-7.96441e-06
1.56059e-06
-8.29555e-06
1.30452e-06
-8.56908e-06
1.06972e-06
-8.78797e-06
8.52012e-07
-8.95473e-06
6.47801e-07
-9.07141e-06
4.53979e-07
-9.13959e-06
2.67823e-07
-9.16046e-06
8.69164e-08
-9.1348e-06
-9.09283e-08
-9.06301e-06
-2.67741e-07
-8.94515e-06
-4.45459e-07
-8.78096e-06
-6.25983e-07
-8.56983e-06
-8.11249e-07
-8.31088e-06
-1.00328e-06
-8.00296e-06
-1.20428e-06
-7.64466e-06
-1.41667e-06
-7.23437e-06
-1.6432e-06
-6.77039e-06
-1.88702e-06
-6.25101e-06
-2.15177e-06
-5.67478e-06
-2.44161e-06
-5.04088e-06
-2.76131e-06
-4.34972e-06
-3.11609e-06
-3.60389e-06
-3.5114e-06
-2.8097e-06
-3.95224e-06
-1.97936e-06
-4.44183e-06
-1.1342e-06
-4.97908e-06
-3.08922e-07
-5.55402e-06
4.43649e-07
-6.13994e-06
1.04897e-06
-6.68067e-06
1.41328e-06
-7.07156e-06
1.44223e-06
-7.13477e-06
1.09148e-06
-6.59476e-06
4.70005e-07
-5.07538e-06
-2.18899e-06
3.49705e-07
2.12324e-06
8.96894e-07
5.16159e-06
1.28993e-06
6.98267e-06
1.38104e-06
7.8206e-06
1.16222e-06
7.97037e-06
6.93117e-07
7.68862e-06
5.25918e-08
7.16701e-06
-6.86349e-07
6.53499e-06
-1.46596e-06
5.87295e-06
-2.24467e-06
5.22678e-06
-2.99471e-06
4.61993e-06
-3.69875e-06
4.06212e-06
-4.34687e-06
3.5551e-06
-4.93414e-06
3.09641e-06
-5.4588e-06
2.68149e-06
-5.92102e-06
2.30503e-06
-6.32207e-06
1.96165e-06
-6.66379e-06
1.64623e-06
-6.94816e-06
1.3541e-06
-7.17718e-06
1.08103e-06
-7.35266e-06
8.23281e-07
-7.47619e-06
5.77511e-07
-7.5491e-06
3.40732e-07
-7.57244e-06
1.1025e-07
-7.54696e-06
-1.16399e-07
-7.4732e-06
-3.4151e-07
-7.35139e-06
-5.67261e-07
-7.1816e-06
-7.95776e-07
-6.96367e-06
-1.02918e-06
-6.69732e-06
-1.26964e-06
-6.38216e-06
-1.51944e-06
-6.01779e-06
-1.78104e-06
-5.60391e-06
-2.05708e-06
-5.14047e-06
-2.35047e-06
-4.62788e-06
-2.66435e-06
-4.06742e-06
-3.00208e-06
-3.46164e-06
-3.36708e-06
-2.81518e-06
-3.76255e-06
-2.13572e-06
-4.19086e-06
-1.4354e-06
-4.65256e-06
-7.32666e-07
-5.14456e-06
-5.44711e-08
-5.65727e-06
5.61498e-07
-6.16999e-06
1.0655e-06
-6.64395e-06
1.39746e-06
-7.01263e-06
1.49557e-06
-7.16967e-06
1.31792e-06
-6.95713e-06
8.83798e-07
-6.16063e-06
3.36228e-07
-4.52781e-06
-1.85276e-06
2.62532e-07
1.86071e-06
7.39614e-07
4.68451e-06
1.16836e-06
6.55393e-06
1.40018e-06
7.58878e-06
1.38829e-06
7.98225e-06
1.14979e-06
7.92711e-06
7.31851e-07
7.58496e-06
1.89194e-07
7.07764e-06
-4.27859e-07
6.49e-06
-1.07827e-06
5.87719e-06
-1.731e-06
5.27267e-06
-2.36394e-06
4.69505e-06
-2.96206e-06
4.15323e-06
-3.51574e-06
3.65008e-06
-4.01916e-06
3.18491e-06
-4.46918e-06
2.75505e-06
-4.86444e-06
2.3569e-06
-5.20467e-06
1.98647e-06
-5.49032e-06
1.63975e-06
-5.72219e-06
1.31289e-06
-5.90122e-06
1.00232e-06
-6.02842e-06
7.04709e-07
-6.10471e-06
4.17025e-07
-6.13093e-06
1.36466e-07
-6.10778e-06
-1.39554e-07
-6.03583e-06
-4.13454e-07
-5.91557e-06
-6.87527e-07
-5.74736e-06
-9.63978e-07
-5.53157e-06
-1.24497e-06
-5.26853e-06
-1.53267e-06
-4.95873e-06
-1.82925e-06
-4.60281e-06
-2.13696e-06
-4.20181e-06
-2.45808e-06
-3.75732e-06
-2.79496e-06
-3.27178e-06
-3.14989e-06
-2.74885e-06
-3.52501e-06
-2.19397e-06
-3.92197e-06
-1.61498e-06
-4.34154e-06
-1.02305e-06
-4.78279e-06
-4.33737e-07
-5.24187e-06
1.31851e-07
-5.71015e-06
6.45967e-07
-6.17139e-06
1.07377e-06
-6.5978e-06
1.3745e-06
-6.94467e-06
1.50586e-06
-7.14399e-06
1.43424e-06
-7.09805e-06
1.15328e-06
-6.67617e-06
7.12144e-07
-5.71949e-06
2.48286e-07
-4.06395e-06
-1.60447e-06
2.0437e-07
1.65634e-06
6.14957e-07
4.27392e-06
1.03794e-06
6.13095e-06
1.34181e-06
7.2849e-06
1.46446e-06
7.85961e-06
1.3963e-06
7.99528e-06
1.15936e-06
7.8219e-06
7.90097e-07
7.4469e-06
3.28013e-07
6.95208e-06
-1.90659e-07
6.39586e-06
-7.35641e-07
5.81765e-06
-1.28317e-06
5.24258e-06
-1.81543e-06
4.6855e-06
-2.31962e-06
4.15427e-06
-2.78685e-06
3.65214e-06
-3.21121e-06
3.17941e-06
-3.58895e-06
2.73464e-06
-3.91786e-06
2.31538e-06
-4.19681e-06
1.91869e-06
-4.42535e-06
1.54144e-06
-4.60352e-06
1.18049e-06
-4.73163e-06
8.32815e-07
-4.81013e-06
4.95529e-07
-4.83958e-06
1.65917e-07
-4.82057e-06
-1.58567e-07
-4.75371e-06
-4.80317e-07
-4.63964e-06
-8.01592e-07
-4.47908e-06
-1.12454e-06
-4.27284e-06
-1.45122e-06
-4.02191e-06
-1.7836e-06
-3.72755e-06
-2.12361e-06
-3.39142e-06
-2.47308e-06
-3.01578e-06
-2.83372e-06
-2.60365e-06
-3.20709e-06
-2.15915e-06
-3.5944e-06
-1.68783e-06
-3.99632e-06
-1.19719e-06
-4.41261e-06
-6.97154e-07
-4.84158e-06
-2.00762e-07
-5.27918e-06
2.75204e-07
-5.71784e-06
7.09689e-07
-6.14463e-06
1.07725e-06
-6.53895e-06
1.34883e-06
-6.86938e-06
1.49424e-06
-7.09008e-06
1.48737e-06
-7.13711e-06
1.31541e-06
-6.92609e-06
9.92698e-07
-6.35346e-06
5.78031e-07
-5.30482e-06
1.89547e-07
-3.67546e-06
-1.41493e-06
1.64253e-07
1.49209e-06
5.17791e-07
3.92039e-06
9.16942e-07
5.7318e-06
1.25154e-06
6.95031e-06
1.45711e-06
7.65403e-06
1.50944e-06
7.94294e-06
1.41285e-06
7.91849e-06
1.18837e-06
7.67139e-06
8.64334e-07
7.27612e-06
4.70238e-07
6.78996e-06
3.31359e-08
6.25475e-06
-4.23928e-07
5.69964e-06
-8.82329e-07
5.1439e-06
-1.32759e-06
4.59953e-06
-1.74881e-06
4.07336e-06
-2.13804e-06
3.56864e-06
-2.48962e-06
3.08622e-06
-2.79967e-06
2.62543e-06
-3.06563e-06
2.18464e-06
-3.28589e-06
1.7617e-06
-3.45957e-06
1.35417e-06
-3.58627e-06
9.59518e-07
-3.66596e-06
5.7522e-07
-3.69887e-06
1.98824e-07
-3.68543e-06
-1.72013e-07
-3.62623e-06
-5.39511e-07
-3.52207e-06
-9.05754e-07
-3.37391e-06
-1.27269e-06
-3.18299e-06
-1.64214e-06
-2.95085e-06
-2.01575e-06
-2.67944e-06
-2.39502e-06
-2.37127e-06
-2.78124e-06
-2.02959e-06
-3.17541e-06
-1.65855e-06
-3.57813e-06
-1.26351e-06
-3.98944e-06
-8.51319e-07
-4.40851e-06
-4.30693e-07
-4.83324e-06
-1.258e-08
-5.25969e-06
3.89467e-07
-5.68123e-06
7.59036e-07
-6.0874e-06
1.07686e-06
-6.46246e-06
1.32137e-06
-6.78346e-06
1.47013e-06
-7.01814e-06
1.50275e-06
-7.1227e-06
1.40579e-06
-7.04016e-06
1.18014e-06
-6.70043e-06
8.50345e-07
-6.02367e-06
4.74386e-07
-4.92886e-06
1.48959e-07
-3.35004e-06
-1.26597e-06
1.35461e-07
1.35663e-06
4.41572e-07
3.61427e-06
8.10301e-07
5.36307e-06
1.15148e-06
6.60913e-06
1.4046e-06
7.40091e-06
1.53879e-06
7.80875e-06
1.54701e-06
7.91027e-06
1.43849e-06
7.77991e-06
1.23173e-06
7.48288e-06
9.49102e-07
7.07258e-06
6.13251e-07
6.5906e-06
2.44991e-07
6.0679e-06
-1.3769e-07
5.52658e-06
-5.19918e-07
4.98176e-06
-8.89802e-07
4.44325e-06
-1.2381e-06
3.91694e-06
-1.55779e-06
3.40592e-06
-1.84369e-06
2.91133e-06
-2.09206e-06
2.43301e-06
-2.30029e-06
1.96993e-06
-2.46666e-06
1.52054e-06
-2.5901e-06
1.08296e-06
-2.6701e-06
6.55215e-07
-2.70653e-06
2.35261e-07
-2.69965e-06
-1.78895e-07
-2.65e-06
-5.8916e-07
-2.55844e-06
-9.97314e-07
-2.42615e-06
-1.40499e-06
-2.25466e-06
-1.81362e-06
-2.04596e-06
-2.22445e-06
-1.80254e-06
-2.63844e-06
-1.52756e-06
-3.05622e-06
-1.22497e-06
-3.47799e-06
-8.99727e-07
-3.90338e-06
-5.57959e-07
-4.33121e-06
-2.07229e-07
-4.75924e-06
1.43238e-07
-5.18371e-06
4.8235e-07
-5.5988e-06
7.97017e-07
-5.9959e-06
1.07221e-06
-6.3626e-06
1.29134e-06
-6.68159e-06
1.43716e-06
-6.92928e-06
1.49345e-06
-7.07443e-06
1.44786e-06
-7.07711e-06
1.29598e-06
-6.88829e-06
1.04677e-06
-6.45122e-06
7.28485e-07
-5.70538e-06
3.93667e-07
-4.59405e-06
1.19818e-07
-3.07619e-06
-1.14615e-06
1.13956e-07
1.24267e-06
3.80778e-07
3.34745e-06
7.17789e-07
5.02606e-06
1.05177e-06
6.27515e-06
1.32867e-06
7.12401e-06
1.5158e-06
7.62162e-06
1.59952e-06
7.82655e-06
1.58072e-06
7.79872e-06
1.46992e-06
7.59368e-06
1.28297e-06
7.25953e-06
1.0378e-06
6.83577e-06
7.52224e-07
6.35347e-06
4.42644e-07
5.83616e-06
1.23382e-07
5.30102e-06
-1.93512e-07
4.76014e-06
-4.98201e-07
4.22163e-06
-7.82855e-07
3.69057e-06
-1.04139e-06
3.16986e-06
-1.26917e-06
2.6608e-06
-1.46279e-06
2.16355e-06
-1.6198e-06
1.67755e-06
-1.73858e-06
1.20174e-06
-1.81814e-06
7.34771e-07
-1.85803e-06
2.75155e-07
-1.85829e-06
-1.78631e-07
-1.81939e-06
-6.28068e-07
-1.74218e-06
-1.07452e-06
-1.62796e-06
-1.51921e-06
-1.47848e-06
-1.9631e-06
-1.29601e-06
-2.40692e-06
-1.08344e-06
-2.85102e-06
-8.44318e-07
-3.29534e-06
-5.83068e-07
-3.73924e-06
-3.05065e-07
-4.18138e-06
-1.681e-08
-4.61946e-06
2.73922e-07
-5.04997e-06
5.57967e-07
-5.46775e-06
8.24707e-07
-5.86554e-06
1.06214e-06
-6.23333e-06
1.25714e-06
-6.5576e-06
1.39605e-06
-6.8205e-06
1.46573e-06
-6.99896e-06
1.45524e-06
-7.06394e-06
1.35826e-06
-6.98013e-06
1.17632e-06
-6.70635e-06
9.22535e-07
-6.19743e-06
6.25158e-07
-5.40801e-06
3.29787e-07
-4.29868e-06
9.81002e-08
-2.8445e-06
-1.04805e-06
9.72869e-08
1.14538e-06
3.31251e-07
3.11349e-06
6.37497e-07
4.71981e-06
9.56555e-07
5.95609e-06
1.24139e-06
6.83917e-06
1.46022e-06
7.40279e-06
1.59608e-06
7.69069e-06
1.64434e-06
7.75046e-06
1.60947e-06
7.62854e-06
1.50183e-06
7.36718e-06
1.33488e-06
7.00272e-06
1.12321e-06
6.56514e-06
8.81102e-07
6.07826e-06
6.21709e-07
5.56041e-06
3.56608e-07
5.02524e-06
9.56567e-08
4.48258e-06
-1.52981e-07
3.93921e-06
-3.82706e-07
3.39959e-06
-5.8831e-07
2.8664e-06
-7.65784e-07
2.34103e-06
-9.12146e-07
1.82391e-06
-1.02528e-06
1.31487e-06
-1.1038e-06
8.13292e-07
-1.14696e-06
3.1832e-07
-1.15459e-06
-1.71008e-07
-1.127e-06
-6.55656e-07
-1.06503e-06
-1.1365e-06
-9.69999e-07
-1.61424e-06
-8.43767e-07
-2.08933e-06
-6.88757e-07
-2.56193e-06
-5.08033e-07
-3.03174e-06
-3.05381e-07
-3.49799e-06
-8.54013e-08
-3.95922e-06
1.46393e-07
-4.41317e-06
3.83484e-07
-4.85655e-06
6.18272e-07
-5.28476e-06
8.42058e-07
-5.69154e-06
1.0451e-06
-6.06858e-06
1.21679e-06
-6.40502e-06
1.34607e-06
-6.68688e-06
1.42211e-06
-6.89653e-06
1.43532e-06
-7.01216e-06
1.37889e-06
-7.00752e-06
1.25078e-06
-6.85202e-06
1.05606e-06
-6.51163e-06
8.09443e-07
-5.95081e-06
5.37286e-07
-5.13585e-06
2.78232e-07
-4.03962e-06
8.13475e-08
-2.64761e-06
-9.66702e-07
8.39258e-08
1.06146e-06
2.89986e-07
2.90743e-06
5.67209e-07
4.44259e-06
8.67112e-07
5.65619e-06
1.14933e-06
6.55695e-06
1.38437e-06
7.16775e-06
1.55407e-06
7.521e-06
1.65045e-06
7.65408e-06
1.67365e-06
7.60534e-06
1.62962e-06
7.41122e-06
1.52793e-06
7.10441e-06
1.38006e-06
6.71302e-06
1.19798e-06
6.26034e-06
9.93316e-07
5.76508e-06
7.76752e-07
5.24181e-06
5.57734e-07
4.7016e-06
3.44363e-07
4.15258e-06
1.43406e-07
3.60055e-06
-3.96226e-08
3.04943e-06
-2.00346e-07
2.50175e-06
-3.35396e-07
1.95896e-06
-4.4229e-07
1.42177e-06
-5.19325e-07
8.90326e-07
-5.65482e-07
3.64477e-07
-5.80368e-07
-1.56122e-07
-5.64163e-07
-6.71861e-07
-5.176e-07
-1.18306e-06
-4.41962e-07
-1.68987e-06
-3.39098e-07
-2.1922e-06
-2.1146e-07
-2.68957e-06
-6.21457e-08
-3.18106e-06
1.05041e-07
-3.66518e-06
2.85526e-07
-4.13971e-06
4.7391e-07
-4.60156e-06
6.63924e-07
-5.04657e-06
8.48423e-07
-5.46926e-06
1.01943e-06
-5.86254e-06
1.16828e-06
-6.21743e-06
1.28588e-06
-6.52262e-06
1.36317e-06
-6.76417e-06
1.39179e-06
-6.92515e-06
1.36505e-06
-6.98542e-06
1.27921e-06
-6.92167e-06
1.13501e-06
-6.70782e-06
9.39414e-07
-6.31603e-06
7.07159e-07
-5.71856e-06
4.61828e-07
-4.89052e-06
2.35734e-07
-3.81353e-06
6.80144e-08
-2.4799e-06
-8.98688e-07
7.28904e-08
9.88568e-07
2.54823e-07
2.7255e-06
5.04899e-07
4.19251e-06
7.83393e-07
5.37769e-06
1.05593e-06
6.28442e-06
1.29588e-06
6.92779e-06
1.48525e-06
7.33163e-06
1.61423e-06
7.5251e-06
1.68003e-06
7.53954e-06
1.68525e-06
7.40599e-06
1.63626e-06
7.1534e-06
1.5417e-06
6.80758e-06
1.4113e-06
6.39074e-06
1.25501e-06
5.92137e-06
1.08236e-06
5.41446e-06
9.02093e-07
4.88186e-06
7.21946e-07
4.33273e-06
5.48576e-07
3.77392e-06
3.87558e-07
3.21045e-06
2.43439e-07
2.64587e-06
1.19812e-07
2.08259e-06
1.94082e-08
1.52217e-06
-5.58239e-08
9.65558e-07
-1.04643e-07
4.13297e-07
-1.26458e-07
-1.34308e-07
-1.21284e-07
-6.77035e-07
-8.97194e-08
-1.21462e-06
-3.29388e-08
-1.74665e-06
4.73013e-08
-2.27244e-06
1.4864e-07
-2.79091e-06
2.68083e-07
-3.3005e-06
4.01965e-07
-3.79906e-06
5.45917e-07
-4.28366e-06
6.9484e-07
-4.75048e-06
8.42908e-07
-5.19464e-06
9.83604e-07
-5.60995e-06
1.10982e-06
-5.98876e-06
1.21403e-06
-6.32164e-06
1.28863e-06
-6.59721e-06
1.32633e-06
-6.80188e-06
1.32086e-06
-6.91968e-06
1.26775e-06
-6.93232e-06
1.16541e-06
-6.81933e-06
1.01626e-06
-6.55867e-06
8.27973e-07
-6.12775e-06
6.1442e-07
-5.50501e-06
3.96149e-07
-4.67225e-06
1.99937e-07
-3.61732e-06
5.70941e-08
-2.33705e-06
-8.41594e-07
6.35267e-08
9.25041e-07
2.24205e-07
2.56482e-06
4.48867e-07
3.96785e-06
7.0481e-07
5.12175e-06
9.62886e-07
6.02634e-06
1.1995e-06
6.69118e-06
1.39757e-06
7.13356e-06
1.54658e-06
7.37609e-06
1.64188e-06
7.44424e-06
1.68365e-06
7.36422e-06
1.67568e-06
7.16136e-06
1.62421e-06
6.85905e-06
1.53691e-06
6.47804e-06
1.42204e-06
6.03623e-06
1.28789e-06
5.54861e-06
1.1423e-06
5.02745e-06
9.92441e-07
4.48259e-06
8.44647e-07
3.92171e-06
7.04355e-07
3.35074e-06
5.76106e-07
2.77412e-06
4.63579e-07
2.19512e-06
3.6964e-07
1.61611e-06
2.96403e-07
1.0388e-06
2.45283e-07
4.64416e-07
2.17049e-07
-1.06073e-07
2.11853e-07
-6.71839e-07
2.29261e-07
-1.23203e-06
2.6826e-07
-1.78565e-06
3.2726e-07
-2.33144e-06
4.04083e-07
-2.86773e-06
4.95948e-07
-3.39237e-06
5.99455e-07
-3.90257e-06
7.1057e-07
-4.39477e-06
8.24633e-07
-4.86454e-06
9.36384e-07
-5.30639e-06
1.04003e-06
-5.7136e-06
1.12939e-06
-6.07811e-06
1.19806e-06
-6.39031e-06
1.23976e-06
-6.63892e-06
1.24878e-06
-6.81089e-06
1.22046e-06
-6.89136e-06
1.15198e-06
-6.86384e-06
1.04315e-06
-6.7105e-06
8.97271e-07
-6.41279e-06
7.21949e-07
-5.95242e-06
5.29704e-07
-5.31276e-06
3.38087e-07
-4.48063e-06
1.69126e-07
-3.44835e-06
4.79079e-08
-2.21583e-06
-7.93686e-07
5.5386e-08
8.69655e-07
1.97002e-07
2.4232e-06
3.97745e-07
3.76711e-06
6.30605e-07
4.88889e-06
8.70951e-07
5.78599e-06
1.09815e-06
6.46398e-06
1.29648e-06
6.93523e-06
1.45541e-06
7.21716e-06
1.56926e-06
7.33039e-06
1.63654e-06
7.29694e-06
1.65909e-06
7.13881e-06
1.64116e-06
6.87697e-06
1.5886e-06
6.5306e-06
1.50811e-06
6.11672e-06
1.4067e-06
5.65003e-06
1.29123e-06
5.14292e-06
1.16819e-06
4.60563e-06
1.04342e-06
4.04648e-06
9.22067e-07
3.47209e-06
8.08537e-07
2.88765e-06
7.06463e-07
2.29719e-06
6.1875e-07
1.70382e-06
5.476e-07
1.10995e-06
4.94553e-07
5.17463e-07
4.60524e-07
-7.20447e-08
4.45834e-07
-6.57148e-07
4.50228e-07
-1.23643e-06
4.72893e-07
-1.80832e-06
5.12461e-07
-2.37101e-06
5.6701e-07
-2.92228e-06
6.34056e-07
-3.45941e-06
7.10554e-07
-3.97906e-06
7.92902e-07
-4.47712e-06
8.76963e-07
-4.94861e-06
9.58114e-07
-5.38754e-06
1.03133e-06
-5.78682e-06
1.09133e-06
-6.13811e-06
1.13278e-06
-6.43176e-06
1.15058e-06
-6.65672e-06
1.14025e-06
-6.80056e-06
1.09843e-06
-6.84954e-06
1.02342e-06
-6.78883e-06
9.15859e-07
-6.60294e-06
7.79323e-07
-6.27625e-06
6.20902e-07
-5.794e-06
4.51522e-07
-5.14338e-06
2.8591e-07
-4.31502e-06
1.42039e-07
-3.30448e-06
3.99841e-08
-2.11378e-06
-7.53702e-07
4.81522e-08
8.21503e-07
1.7238e-07
2.29897e-06
3.50449e-07
3.58904e-06
5.60023e-07
4.67932e-06
7.80371e-07
5.56565e-06
9.93645e-07
6.25071e-06
1.1857e-06
6.74317e-06
1.34647e-06
7.0564e-06
1.46983e-06
7.20704e-06
1.55322e-06
7.21355e-06
1.59705e-06
7.09498e-06
1.60401e-06
6.87002e-06
1.57837e-06
6.55624e-06
1.52545e-06
6.16965e-06
1.45102e-06
5.72445e-06
1.36099e-06
5.23295e-06
1.26103e-06
4.70559e-06
1.15644e-06
4.15107e-06
1.05196e-06
3.57657e-06
9.51732e-07
2.98787e-06
8.59257e-07
2.38966e-06
7.77386e-07
1.78569e-06
7.08341e-07
1.17899e-06
6.53738e-07
5.72065e-07
6.14611e-07
-3.29168e-08
5.91432e-07
-6.3397e-07
5.84139e-07
-1.22913e-06
5.92141e-07
-1.81632e-06
6.14332e-07
-2.3932e-06
6.49093e-07
-2.95704e-06
6.94298e-07
-3.50462e-06
7.4732e-07
-4.03209e-06
8.0505e-07
-4.53485e-06
8.63925e-07
-5.00748e-06
9.1999e-07
-5.4436e-06
9.68988e-07
-5.83582e-06
1.0065e-06
-6.17562e-06
1.02813e-06
-6.4534e-06
1.0298e-06
-6.65839e-06
1.00802e-06
-6.77878e-06
9.60355e-07
-6.80187e-06
8.85857e-07
-6.71434e-06
7.85544e-07
-6.50262e-06
6.62878e-07
-6.15359e-06
5.24126e-07
-5.65525e-06
3.78541e-07
-4.9978e-06
2.38245e-07
-4.17472e-06
1.17738e-07
-3.18398e-06
3.29864e-08
-2.02903e-06
-7.20715e-07
4.15976e-08
7.79906e-07
1.49719e-07
2.19085e-06
3.06124e-07
3.43264e-06
4.92382e-07
4.49306e-06
6.91139e-07
5.36689e-06
8.87127e-07
6.05472e-06
1.06786e-06
6.56243e-06
1.22403e-06
6.90023e-06
1.34949e-06
7.08157e-06
1.4411e-06
7.12194e-06
1.49825e-06
7.03783e-06
1.52242e-06
6.84585e-06
1.51663e-06
6.56203e-06
1.48494e-06
6.20134e-06
1.43203e-06
5.77736e-06
1.36283e-06
5.30215e-06
1.28224e-06
4.78618e-06
1.1949e-06
4.23841e-06
1.10511e-06
3.66636e-06
1.01665e-06
3.07633e-06
9.32811e-07
2.4735e-06
8.5632e-07
1.86218e-06
7.89357e-07
1.24595e-06
7.33567e-07
6.27855e-07
6.90069e-07
1.05817e-08
6.59475e-07
-6.03377e-07
6.4191e-07
-1.21157e-06
6.37017e-07
-1.81143e-06
6.43976e-07
-2.40015e-06
6.61504e-07
-2.97457e-06
6.8787e-07
-3.53098e-06
7.20906e-07
-4.06512e-06
7.58027e-07
-4.57197e-06
7.96268e-07
-5.04572e-06
8.32347e-07
-5.47968e-06
8.62745e-07
-5.86622e-06
8.83842e-07
-6.19672e-06
8.92083e-07
-6.46164e-06
8.84207e-07
-6.65051e-06
8.57524e-07
-6.7521e-06
8.10242e-07
-6.75459e-06
7.41829e-07
-6.64592e-06
6.53382e-07
-6.41418e-06
5.47965e-07
-6.04817e-06
4.30852e-07
-5.53814e-06
3.09621e-07
-4.87657e-06
1.94011e-07
-4.05911e-06
9.55149e-08
-3.08548e-06
2.66702e-08
-1.96018e-06
-6.94045e-07
3.55544e-08
7.44351e-07
1.28552e-07
2.09786e-06
2.64103e-07
3.29709e-06
4.27092e-07
4.33007e-06
6.03126e-07
5.19085e-06
7.79306e-07
5.87854e-06
9.44818e-07
6.39692e-06
1.09128e-06
6.75377e-06
1.21286e-06
6.96e-06
1.30613e-06
7.02867e-06
1.36987e-06
6.97409e-06
1.40464e-06
6.81107e-06
1.41245e-06
6.55422e-06
1.39631e-06
6.21748e-06
1.3599e-06
5.81377e-06
1.30725e-06
5.3548e-06
1.24247e-06
4.85096e-06
1.16957e-06
4.31131e-06
1.09231e-06
3.74362e-06
1.01409e-06
3.15455e-06
9.37911e-07
2.54968e-06
8.66322e-07
1.93377e-06
8.0141e-07
1.31086e-06
7.44802e-07
6.84464e-07
6.97671e-07
5.77121e-08
6.6075e-07
-5.66455e-07
6.34337e-07
-1.18515e-06
6.18316e-07
-1.79541e-06
6.12159e-07
-2.394e-06
6.14939e-07
-2.97735e-06
6.2534e-07
-3.54139e-06
6.41671e-07
-4.08145e-06
6.61888e-07
-4.59219e-06
6.83629e-07
-5.06746e-06
7.04267e-07
-5.50032e-06
7.20988e-07
-5.88294e-06
7.30898e-07
-6.20663e-06
7.3117e-07
-6.46191e-06
7.19229e-07
-6.63857e-06
6.92975e-07
-6.72584e-06
6.51044e-07
-6.71266e-06
5.93086e-07
-6.58796e-06
5.20044e-07
-6.34114e-06
4.34401e-07
-5.96253e-06
3.40344e-07
-5.44408e-06
2.43809e-07
-4.78003e-06
1.52355e-07
-3.96766e-06
7.48337e-08
-3.00796e-06
2.08538e-08
-1.9062e-06
-6.73191e-07
2.98969e-08
7.14454e-07
1.0852e-07
2.01923e-06
2.23854e-07
3.18175e-06
3.63657e-07
4.19027e-06
5.16156e-07
5.03836e-06
6.70637e-07
5.72406e-06
8.17923e-07
6.24963e-06
9.50684e-07
6.62101e-06
1.06357e-06
6.84711e-06
1.15318e-06
6.93906e-06
1.21792e-06
6.90936e-06
1.25771e-06
6.77128e-06
1.27376e-06
6.53817e-06
1.26822e-06
6.22302e-06
1.24388e-06
5.83811e-06
1.20394e-06
5.39474e-06
1.15177e-06
4.90314e-06
1.09072e-06
4.37236e-06
1.024e-06
3.81034e-06
9.54606e-07
3.22394e-06
8.85189e-07
2.6191e-06
8.18072e-07
2.00089e-06
7.55205e-07
1.37373e-06
6.9816e-07
7.41509e-07
6.48131e-07
1.0774e-07
6.05946e-07
-5.24269e-07
5.72066e-07
-1.15127e-06
5.46604e-07
-1.76994e-06
5.29326e-07
-2.37672e-06
5.19666e-07
-2.96769e-06
5.16728e-07
-3.53845e-06
5.19308e-07
-4.08403e-06
5.25904e-07
-4.59878e-06
5.34747e-07
-5.07631e-06
5.43847e-07
-5.50942e-06
5.5105e-07
-5.89014e-06
5.54123e-07
-6.2097e-06
5.50873e-07
-6.45866e-06
5.39286e-07
-6.62698e-06
5.17703e-07
-6.70426e-06
4.85015e-07
-6.67997e-06
4.40878e-07
-6.54383e-06
3.85923e-07
-6.28618e-06
3.21928e-07
-5.89853e-06
2.51946e-07
-5.3741e-06
1.80324e-07
-4.70841e-06
1.12605e-07
-3.89994e-06
5.52808e-08
-2.95064e-06
1.54001e-08
-1.86632e-06
-6.57791e-07
2.45283e-08
6.89926e-07
8.93427e-08
1.95442e-06
1.84954e-07
3.08614e-06
3.01659e-07
4.07356e-06
4.30042e-07
4.90997e-06
5.61414e-07
5.59269e-06
6.88189e-07
6.12285e-06
8.04149e-07
6.50505e-06
9.04576e-07
6.74669e-06
9.86276e-07
6.85736e-06
1.04749e-06
6.84815e-06
1.08773e-06
6.73103e-06
1.10759e-06
6.51831e-06
1.10849e-06
6.22212e-06
1.09246e-06
5.85413e-06
1.06195e-06
5.42525e-06
1.01961e-06
4.94548e-06
9.68173e-07
4.4238e-06
9.10294e-07
3.86822e-06
8.48494e-07
3.28574e-06
7.85081e-07
2.68251e-06
7.22105e-07
2.06387e-06
6.61338e-07
1.4345e-06
6.04262e-07
7.98585e-07
5.52061e-07
1.59941e-07
5.0563e-07
-4.77838e-07
4.65576e-07
-1.11122e-06
4.32225e-07
-1.73659e-06
4.05632e-07
-2.35013e-06
3.85584e-07
-2.94764e-06
3.71608e-07
-3.52447e-06
3.62978e-07
-4.0754e-06
3.5873e-07
-4.59454e-06
3.57678e-07
-5.07525e-06
3.58441e-07
-5.51018e-06
3.59487e-07
-5.89118e-06
3.59192e-07
-6.20941e-06
3.55918e-07
-6.45539e-06
3.48116e-07
-6.61918e-06
3.34454e-07
-6.6906e-06
3.13956e-07
-6.65947e-06
2.86158e-07
-6.51603e-06
2.51266e-07
-6.25129e-06
2.10281e-07
-5.85755e-06
1.65099e-07
-5.32892e-06
1.18527e-07
-4.66184e-06
7.42249e-08
-3.85564e-06
3.65339e-08
-2.91295e-06
1.02039e-08
-1.83999e-06
-6.47587e-07
1.93723e-08
6.70554e-07
7.07972e-08
1.90299e-06
1.47057e-07
3.00988e-06
2.40743e-07
3.97988e-06
3.44596e-07
4.80612e-06
4.51825e-07
5.48546e-06
5.5639e-07
6.01829e-06
6.53209e-07
6.40823e-06
7.38297e-07
6.6616e-06
8.088e-07
6.78685e-06
8.62967e-07
6.79398e-06
9.00053e-07
6.69395e-06
9.20181e-07
6.49818e-06
9.24184e-07
6.21812e-06
9.13438e-07
5.86488e-06
8.89699e-07
5.44899e-06
8.5496e-07
4.98022e-06
8.11326e-07
4.46743e-06
7.60912e-07
3.91863e-06
7.05766e-07
3.34089e-06
6.47806e-07
2.74047e-06
5.88787e-07
2.12289e-06
5.3027e-07
1.49302e-06
4.73612e-07
8.55244e-07
4.19957e-07
2.13595e-07
3.70241e-07
-4.28123e-07
3.25193e-07
-1.06617e-06
2.85336e-07
-1.69674e-06
2.50997e-07
-2.31579e-06
2.22306e-07
-2.91895e-06
1.99203e-07
-3.50137e-06
1.81434e-07
-4.05763e-06
1.68563e-07
-4.58166e-06
1.59969e-07
-5.06666e-06
1.54862e-07
-5.50508e-06
1.52304e-07
-5.88863e-06
1.51233e-07
-6.20834e-06
1.50515e-07
-6.45467e-06
1.49e-07
-6.61767e-06
1.45602e-07
-6.6872e-06
1.39394e-07
-6.65327e-06
1.29711e-07
-6.50635e-06
1.16261e-07
-6.23784e-06
9.92262e-08
-5.84051e-06
7.93345e-08
-5.30903e-06
5.78978e-08
-4.6404e-06
3.67858e-08
-3.83452e-06
1.83373e-08
-2.8945e-06
5.18238e-09
-1.82684e-06
-6.42405e-07
1.43663e-08
6.56187e-07
5.26979e-08
1.86466e-06
1.09872e-07
2.95271e-06
1.80599e-07
3.90915e-06
2.59635e-07
4.72708e-06
3.41991e-07
5.4031e-06
4.23128e-07
5.93715e-06
4.9912e-07
6.33224e-06
5.66771e-07
6.59395e-06
6.23666e-07
6.72996e-06
6.68178e-07
6.74947e-06
6.99423e-07
6.6627e-06
7.17181e-07
6.48042e-06
7.21795e-07
6.2135e-06
7.1406e-07
5.87261e-06
6.95112e-07
5.46794e-06
6.66317e-07
5.00901e-06
6.29184e-07
4.50457e-06
5.85281e-07
3.96253e-06
5.36174e-07
3.39e-06
4.83377e-07
2.79327e-06
4.2832e-07
2.17794e-06
3.72326e-07
1.54901e-06
3.16596e-07
9.10974e-07
2.62206e-07
2.67985e-07
2.10106e-07
-3.76022e-07
1.61118e-07
-1.01718e-06
1.15943e-07
-1.65156e-06
7.51619e-08
-2.27501e-06
3.92326e-08
-2.88302e-06
8.49246e-09
-3.47063e-06
-1.68488e-08
-4.03229e-06
-3.67146e-08
-4.5618e-06
-5.11698e-08
-5.05221e-06
-6.04278e-08
-5.49582e-06
-6.48554e-08
-5.8842e-06
-6.49725e-08
-6.20822e-06
-6.14436e-08
-6.4582e-06
-5.50584e-08
-6.62405e-06
-4.66993e-08
-6.69556e-06
-3.7294e-08
-6.66267e-06
-2.77551e-08
-6.51589e-06
-1.89091e-08
-6.24668e-06
-1.14222e-08
-5.848e-06
-5.73076e-09
-5.31472e-06
-1.99073e-09
-4.64414e-06
-5.67021e-11
-3.83646e-06