/*--------------------------------*- C++ -*----------------------------------*\
  =========                 |
  \\      /  F ield         | OpenFOAM: The Open Source CFD Toolbox
   \\    /   O peration     | Website:  https://openfoam.org
    \\  /    A nd           | Version:  7
     \\/     M anipulation  |
\*---------------------------------------------------------------------------*/
FoamFile
{
    version     2.0;
    format      ascii;
    class       volScalarField;
    location    "0.0374";
    object      p;
}
// * * * * * * * * * * * * * * * * * * * * * * * * * * * * * * * * * * * * * //

dimensions      [0 2 -2 0 0 0 0];

internalField   nonuniform List<scalar> 
2500
(
-1.41201e-05
-6.51176
-9.29645
-10.4917
-11.1563
-11.5618
-11.8246
-12.0085
-12.1454
-12.2517
-12.3366
-12.4061
-12.4636
-12.512
-12.5529
-12.5878
-12.6176
-12.6432
-12.6653
-12.6843
-12.7007
-12.715
-12.7273
-12.7381
-12.7477
-12.7563
-12.7642
-12.7718
-12.7792
-12.7869
-12.7952
-12.8045
-12.8153
-12.8281
-12.8436
-12.8625
-12.8858
-12.9148
-12.9512
-12.9974
-13.0569
-13.1349
-13.2402
-13.3884
-13.6105
-13.9676
-14.5666
-15.6668
-18.3337
-24.7186
-4.95579
-7.67554
-9.18195
-10.1416
-10.8089
-11.2683
-11.5893
-11.822
-11.9967
-12.1318
-12.2389
-12.3255
-12.3968
-12.4562
-12.5062
-12.5487
-12.5852
-12.6165
-12.6436
-12.6672
-12.6879
-12.706
-12.7221
-12.7365
-12.7496
-12.7617
-12.7732
-12.7845
-12.7958
-12.8076
-12.8203
-12.8344
-12.8505
-12.8694
-12.8917
-12.9186
-12.9515
-12.992
-13.0426
-13.1066
-13.189
-13.2968
-13.4411
-13.6395
-13.9212
-14.334
-14.9432
-15.8309
-17.2507
-19.8498
-7.92578
-8.75787
-9.55853
-10.2392
-10.779
-11.1887
-11.4978
-11.734
-11.9176
-12.0626
-12.1792
-12.2743
-12.353
-12.4189
-12.4746
-12.5221
-12.5629
-12.5982
-12.6289
-12.6558
-12.6794
-12.7005
-12.7193
-12.7364
-12.7521
-12.7669
-12.781
-12.795
-12.8092
-12.8239
-12.8399
-12.8575
-12.8774
-12.9004
-12.9274
-12.9595
-12.9984
-13.0458
-13.1043
-13.1775
-13.27
-13.3887
-13.5433
-13.7473
-14.0201
-14.3883
-14.88
-15.5075
-16.2528
-17.0162
-9.43582
-9.64868
-10.0674
-10.512
-10.9047
-11.2315
-11.4977
-11.713
-11.8875
-12.0299
-12.147
-12.2443
-12.3258
-12.3948
-12.4536
-12.504
-12.5477
-12.5856
-12.6188
-12.6481
-12.674
-12.6972
-12.7182
-12.7374
-12.7552
-12.772
-12.7883
-12.8044
-12.8207
-12.8378
-12.8561
-12.8763
-12.8989
-12.9248
-12.9549
-12.9903
-13.0327
-13.0836
-13.1456
-13.2216
-13.3158
-13.4332
-13.5806
-13.7665
-14.0005
-14.2921
-14.647
-15.0524
-15.4344
-15.6121
-10.3219
-10.3207
-10.5241
-10.8006
-11.075
-11.3248
-11.5432
-11.7299
-11.8877
-12.0209
-12.1334
-12.2288
-12.3101
-12.3797
-12.4398
-12.4918
-12.5371
-12.5768
-12.6118
-12.6429
-12.6706
-12.6955
-12.7182
-12.7391
-12.7586
-12.7771
-12.7951
-12.813
-12.8311
-12.85
-12.8702
-12.8923
-12.9169
-12.9448
-12.9769
-13.0142
-13.0582
-13.1105
-13.1729
-13.248
-13.3388
-13.4486
-13.5816
-13.7419
-13.9325
-14.1533
-14.3983
-14.6467
-14.8261
-14.8075
-10.889
-10.8139
-10.9021
-11.0692
-11.2567
-11.4428
-11.6166
-11.773
-11.9109
-12.0312
-12.1357
-12.2262
-12.3048
-12.3732
-12.4329
-12.4851
-12.5311
-12.5717
-12.6078
-12.6399
-12.6689
-12.6951
-12.719
-12.7412
-12.762
-12.7819
-12.8012
-12.8204
-12.8399
-12.8601
-12.8816
-12.905
-12.9308
-12.9598
-12.9929
-13.0309
-13.075
-13.1265
-13.1871
-13.2584
-13.3424
-13.4412
-13.5566
-13.6897
-13.8398
-14.0023
-14.1673
-14.3144
-14.3875
-14.3055
-11.2714
-11.1794
-11.2089
-11.3075
-11.4336
-11.5697
-11.7051
-11.833
-11.9504
-12.0563
-12.1508
-12.2346
-12.3087
-12.3742
-12.4322
-12.4836
-12.5292
-12.5699
-12.6063
-12.639
-12.6686
-12.6956
-12.7204
-12.7434
-12.7651
-12.7859
-12.8062
-12.8263
-12.8466
-12.8677
-12.8901
-12.9141
-12.9405
-12.9698
-13.0028
-13.0404
-13.0833
-13.1327
-13.1897
-13.2554
-13.3309
-13.4171
-13.5144
-13.622
-13.7373
-13.8544
-13.9634
-14.0479
-14.0684
-13.9752
-11.5448
-11.4564
-11.4567
-11.5129
-11.5965
-11.6949
-11.7988
-11.9018
-12
-12.0914
-12.1752
-12.2512
-12.3198
-12.3814
-12.4367
-12.4863
-12.5308
-12.5708
-12.6069
-12.6396
-12.6694
-12.6967
-12.7219
-12.7455
-12.7677
-12.789
-12.8098
-12.8304
-12.8513
-12.8728
-12.8954
-12.9197
-12.946
-12.9749
-13.0072
-13.0434
-13.0843
-13.1305
-13.1829
-13.242
-13.3084
-13.382
-13.4624
-13.5479
-13.6352
-13.7184
-13.7891
-13.8355
-13.8309
-13.7446
-11.7506
-11.6715
-11.6576
-11.6876
-11.7423
-11.8127
-11.8918
-11.9738
-12.0549
-12.1328
-12.206
-12.2739
-12.3363
-12.3934
-12.4453
-12.4924
-12.5351
-12.574
-12.6093
-12.6415
-12.671
-12.6982
-12.7235
-12.7471
-12.7695
-12.791
-12.812
-12.8328
-12.8538
-12.8753
-12.8978
-12.9217
-12.9475
-12.9756
-13.0066
-13.0409
-13.079
-13.1215
-13.1688
-13.2211
-13.2785
-13.3405
-13.406
-13.4732
-13.5385
-13.597
-13.6421
-13.6655
-13.6495
-13.5745
-11.9119
-11.8426
-11.8221
-11.836
-11.871
-11.921
-11.9808
-12.0456
-12.112
-12.1776
-12.2408
-12.3008
-12.3569
-12.409
-12.457
-12.5012
-12.5417
-12.5789
-12.6129
-12.6443
-12.6731
-12.6999
-12.7248
-12.7482
-12.7705
-12.7919
-12.8127
-12.8333
-12.8541
-12.8753
-12.8974
-12.9206
-12.9455
-12.9723
-13.0015
-13.0335
-13.0687
-13.1072
-13.1493
-13.195
-13.244
-13.2956
-13.3486
-13.4009
-13.4495
-13.4903
-13.5184
-13.5281
-13.5075
-13.4434
-12.0421
-11.9815
-11.9584
-11.9624
-11.984
-12.0192
-12.0641
-12.1149
-12.1689
-12.2237
-12.2778
-12.3302
-12.3801
-12.4271
-12.4711
-12.5121
-12.55
-12.5851
-12.6176
-12.6477
-12.6755
-12.7015
-12.7258
-12.7487
-12.7705
-12.7915
-12.8119
-12.8321
-12.8524
-12.873
-12.8943
-12.9166
-12.9403
-12.9655
-12.9928
-13.0223
-13.0543
-13.0888
-13.126
-13.1655
-13.207
-13.2497
-13.2923
-13.3328
-13.3688
-13.397
-13.4138
-13.4155
-13.3937
-13.3392
-12.1495
-12.0964
-12.0728
-12.0707
-12.0831
-12.1075
-12.141
-12.1808
-12.2243
-12.2698
-12.3158
-12.3611
-12.405
-12.4471
-12.4869
-12.5245
-12.5596
-12.5924
-12.623
-12.6515
-12.6781
-12.703
-12.7264
-12.7485
-12.7696
-12.79
-12.8097
-12.8293
-12.8488
-12.8686
-12.8889
-12.91
-12.9323
-12.9559
-12.981
-13.008
-13.0368
-13.0675
-13.1
-13.134
-13.169
-13.2041
-13.2382
-13.2696
-13.2962
-13.3154
-13.3248
-13.3219
-13.3006
-13.2542
-12.2396
-12.1928
-12.1698
-12.164
-12.1703
-12.1868
-12.2116
-12.2424
-12.2774
-12.3149
-12.3537
-12.3926
-12.4309
-12.4682
-12.5039
-12.5379
-12.5701
-12.6005
-12.6289
-12.6557
-12.6808
-12.7044
-12.7266
-12.7478
-12.7679
-12.7874
-12.8063
-12.825
-12.8435
-12.8623
-12.8815
-12.9013
-12.9221
-12.9438
-12.9668
-12.9912
-13.017
-13.0441
-13.0724
-13.1015
-13.1309
-13.1598
-13.187
-13.2113
-13.2309
-13.2439
-13.2484
-13.243
-13.2231
-13.1834
-12.3162
-12.2749
-12.2529
-12.2451
-12.2471
-12.2579
-12.276
-12.2998
-12.3278
-12.3585
-12.3909
-12.4241
-12.4572
-12.4899
-12.5216
-12.5522
-12.5814
-12.6091
-12.6353
-12.6601
-12.6835
-12.7056
-12.7265
-12.7465
-12.7655
-12.7839
-12.8018
-12.8194
-12.8369
-12.8545
-12.8725
-12.8909
-12.91
-12.9299
-12.9508
-12.9727
-12.9956
-13.0195
-13.044
-13.0688
-13.0935
-13.1172
-13.139
-13.1578
-13.1723
-13.1808
-13.1823
-13.1756
-13.1574
-13.1234
-12.382
-12.3454
-12.3249
-12.316
-12.3152
-12.3218
-12.3349
-12.3531
-12.3752
-12.4002
-12.4271
-12.4551
-12.4836
-12.512
-12.5398
-12.567
-12.5931
-12.6182
-12.6421
-12.6648
-12.6863
-12.7068
-12.7262
-12.7448
-12.7626
-12.7798
-12.7965
-12.8129
-12.8292
-12.8455
-12.8621
-12.879
-12.8965
-12.9146
-12.9334
-12.953
-12.9732
-12.9941
-13.0153
-13.0364
-13.0571
-13.0766
-13.0941
-13.1087
-13.1194
-13.1249
-13.1245
-13.1174
-13.1011
-13.0719
-12.4391
-12.4068
-12.3878
-12.3784
-12.3758
-12.3794
-12.3886
-12.4024
-12.4198
-12.44
-12.4621
-12.4856
-12.5097
-12.5341
-12.5583
-12.5821
-12.6053
-12.6277
-12.6492
-12.6697
-12.6893
-12.708
-12.7258
-12.7429
-12.7593
-12.7751
-12.7905
-12.8056
-12.8206
-12.8356
-12.8507
-12.8662
-12.882
-12.8982
-12.9151
-12.9324
-12.9502
-12.9684
-12.9866
-13.0047
-13.022
-13.038
-13.0522
-13.0636
-13.0715
-13.0749
-13.0734
-13.0665
-13.052
-13.0272
-12.489
-12.4605
-12.4432
-12.4339
-12.4301
-12.4316
-12.4379
-12.4481
-12.4616
-12.4777
-12.4958
-12.5152
-12.5354
-12.5561
-12.577
-12.5976
-12.6178
-12.6376
-12.6566
-12.6749
-12.6925
-12.7093
-12.7255
-12.7409
-12.7558
-12.7702
-12.7842
-12.7979
-12.8115
-12.8251
-12.8387
-12.8526
-12.8667
-12.8812
-12.8961
-12.9114
-12.927
-12.9427
-12.9584
-12.9737
-12.9882
-13.0015
-13.0129
-13.0219
-13.0278
-13.0299
-13.0278
-13.0214
-13.0088
-12.9877
-12.5331
-12.5081
-12.4925
-12.4835
-12.4792
-12.4792
-12.4832
-12.4906
-12.501
-12.5136
-12.5281
-12.5439
-12.5607
-12.578
-12.5956
-12.6133
-12.6307
-12.6478
-12.6644
-12.6805
-12.696
-12.7109
-12.7252
-12.739
-12.7523
-12.7651
-12.7777
-12.7899
-12.8021
-12.8141
-12.8263
-12.8386
-12.8511
-12.8638
-12.8769
-12.8902
-12.9037
-12.9173
-12.9307
-12.9436
-12.9558
-12.9668
-12.976
-12.9832
-12.9876
-12.9889
-12.9867
-12.9809
-12.9702
-12.9526
-12.5723
-12.5505
-12.5367
-12.5283
-12.5237
-12.5227
-12.525
-12.5303
-12.538
-12.5478
-12.5592
-12.5719
-12.5855
-12.5997
-12.6144
-12.6291
-12.6438
-12.6584
-12.6726
-12.6865
-12.6999
-12.7128
-12.7253
-12.7373
-12.7489
-12.7602
-12.7712
-12.7819
-12.7925
-12.8031
-12.8137
-12.8244
-12.8352
-12.8463
-12.8576
-12.869
-12.8806
-12.8922
-12.9035
-12.9144
-12.9246
-12.9337
-12.9412
-12.947
-12.9504
-12.9512
-12.9492
-12.9442
-12.9353
-12.921
-12.6075
-12.5888
-12.5767
-12.569
-12.5645
-12.5628
-12.5639
-12.5674
-12.573
-12.5803
-12.5891
-12.599
-12.6098
-12.6212
-12.6331
-12.6451
-12.6573
-12.6693
-12.6812
-12.6929
-12.7042
-12.7152
-12.7258
-12.736
-12.7459
-12.7555
-12.7649
-12.774
-12.7831
-12.7921
-12.8011
-12.8102
-12.8194
-12.8288
-12.8383
-12.848
-12.8577
-12.8675
-12.877
-12.8861
-12.8945
-12.902
-12.9082
-12.9128
-12.9156
-12.9162
-12.9145
-12.9105
-12.9034
-12.892
-12.6393
-12.6235
-12.6132
-12.6064
-12.6021
-12.6001
-12.6003
-12.6025
-12.6063
-12.6115
-12.618
-12.6255
-12.6337
-12.6425
-12.6518
-12.6613
-12.671
-12.6807
-12.6903
-12.6998
-12.7091
-12.7181
-12.7268
-12.7352
-12.7434
-12.7513
-12.759
-12.7665
-12.7739
-12.7813
-12.7887
-12.7961
-12.8037
-12.8114
-12.8192
-12.8272
-12.8352
-12.8432
-12.851
-12.8584
-12.8653
-12.8715
-12.8765
-12.8803
-12.8826
-12.8832
-12.882
-12.879
-12.8737
-12.8652
-12.6685
-12.6555
-12.6469
-12.6411
-12.6372
-12.6351
-12.6347
-12.6357
-12.6381
-12.6415
-12.646
-12.6513
-12.6572
-12.6637
-12.6706
-12.6777
-12.6851
-12.6925
-12.6999
-12.7073
-12.7145
-12.7215
-12.7284
-12.735
-12.7414
-12.7475
-12.7535
-12.7594
-12.7652
-12.7709
-12.7766
-12.7824
-12.7883
-12.7943
-12.8004
-12.8067
-12.813
-12.8193
-12.8255
-12.8314
-12.8369
-12.8418
-12.846
-12.8491
-12.8511
-12.8518
-12.8512
-12.8493
-12.8457
-12.84
-12.6956
-12.6853
-12.6785
-12.6737
-12.6703
-12.6682
-12.6673
-12.6675
-12.6686
-12.6706
-12.6733
-12.6766
-12.6805
-12.6848
-12.6894
-12.6944
-12.6995
-12.7048
-12.7101
-12.7154
-12.7206
-12.7257
-12.7306
-12.7354
-12.74
-12.7444
-12.7487
-12.7529
-12.7569
-12.761
-12.765
-12.7691
-12.7732
-12.7775
-12.7819
-12.7865
-12.7911
-12.7958
-12.8004
-12.8049
-12.8091
-12.8129
-12.8161
-12.8187
-12.8205
-12.8214
-12.8215
-12.8207
-12.8189
-12.8158
-12.721
-12.7135
-12.7083
-12.7046
-12.7019
-12.6999
-12.6987
-12.6982
-12.6983
-12.6989
-12.7
-12.7016
-12.7035
-12.7058
-12.7084
-12.7113
-12.7143
-12.7175
-12.7208
-12.7241
-12.7273
-12.7305
-12.7336
-12.7365
-12.7393
-12.742
-12.7445
-12.747
-12.7493
-12.7516
-12.7539
-12.7562
-12.7586
-12.7611
-12.7638
-12.7666
-12.7695
-12.7725
-12.7756
-12.7786
-12.7816
-12.7843
-12.7868
-12.7888
-12.7905
-12.7917
-12.7924
-12.7927
-12.7927
-12.7923
-12.7453
-12.7404
-12.737
-12.7344
-12.7323
-12.7306
-12.7292
-12.7281
-12.7273
-12.7267
-12.7264
-12.7263
-12.7265
-12.7269
-12.7276
-12.7284
-12.7295
-12.7307
-12.732
-12.7334
-12.7347
-12.7361
-12.7373
-12.7384
-12.7395
-12.7403
-12.7411
-12.7418
-12.7423
-12.7428
-12.7433
-12.7438
-12.7444
-12.7451
-12.7459
-12.7469
-12.7481
-12.7494
-12.7509
-12.7525
-12.7542
-12.7559
-12.7575
-12.7591
-12.7607
-12.7621
-12.7636
-12.765
-12.7667
-12.7689
-12.7689
-12.7667
-12.765
-12.7635
-12.7621
-12.7606
-12.7591
-12.7575
-12.7559
-12.7542
-12.7525
-12.7509
-12.7494
-12.7481
-12.7469
-12.7459
-12.7451
-12.7444
-12.7438
-12.7433
-12.7428
-12.7423
-12.7418
-12.7411
-12.7403
-12.7395
-12.7384
-12.7373
-12.7361
-12.7347
-12.7334
-12.732
-12.7307
-12.7295
-12.7285
-12.7276
-12.7269
-12.7265
-12.7263
-12.7264
-12.7267
-12.7273
-12.7281
-12.7292
-12.7306
-12.7323
-12.7345
-12.737
-12.7404
-12.7453
-12.7923
-12.7927
-12.7927
-12.7924
-12.7917
-12.7905
-12.7888
-12.7868
-12.7843
-12.7816
-12.7786
-12.7756
-12.7725
-12.7695
-12.7665
-12.7638
-12.7611
-12.7586
-12.7562
-12.7539
-12.7516
-12.7493
-12.747
-12.7445
-12.742
-12.7393
-12.7365
-12.7336
-12.7305
-12.7273
-12.7241
-12.7208
-12.7175
-12.7143
-12.7113
-12.7084
-12.7058
-12.7035
-12.7016
-12.7
-12.6989
-12.6983
-12.6982
-12.6987
-12.6999
-12.7019
-12.7047
-12.7083
-12.7135
-12.721
-12.8158
-12.8189
-12.8206
-12.8214
-12.8214
-12.8205
-12.8187
-12.8161
-12.8129
-12.8091
-12.8049
-12.8004
-12.7957
-12.7911
-12.7864
-12.7819
-12.7775
-12.7732
-12.7691
-12.765
-12.761
-12.7569
-12.7529
-12.7487
-12.7444
-12.74
-12.7354
-12.7306
-12.7257
-12.7206
-12.7154
-12.7101
-12.7048
-12.6995
-12.6944
-12.6894
-12.6848
-12.6805
-12.6766
-12.6733
-12.6706
-12.6687
-12.6675
-12.6674
-12.6682
-12.6703
-12.6737
-12.6785
-12.6854
-12.6956
-12.84
-12.8457
-12.8492
-12.8511
-12.8518
-12.851
-12.8491
-12.8459
-12.8418
-12.8369
-12.8314
-12.8255
-12.8193
-12.813
-12.8067
-12.8004
-12.7943
-12.7883
-12.7824
-12.7766
-12.7709
-12.7652
-12.7594
-12.7535
-12.7475
-12.7414
-12.735
-12.7284
-12.7215
-12.7145
-12.7073
-12.7
-12.6925
-12.6851
-12.6778
-12.6706
-12.6637
-12.6572
-12.6513
-12.646
-12.6416
-12.6381
-12.6357
-12.6347
-12.6351
-12.6372
-12.6412
-12.6469
-12.6556
-12.6685
-12.8652
-12.8737
-12.879
-12.882
-12.8832
-12.8826
-12.8803
-12.8765
-12.8714
-12.8653
-12.8584
-12.851
-12.8432
-12.8352
-12.8272
-12.8192
-12.8114
-12.8037
-12.7961
-12.7887
-12.7813
-12.7739
-12.7665
-12.759
-12.7513
-12.7434
-12.7352
-12.7268
-12.7181
-12.7091
-12.6998
-12.6904
-12.6807
-12.671
-12.6614
-12.6518
-12.6426
-12.6337
-12.6255
-12.618
-12.6116
-12.6063
-12.6025
-12.6003
-12.6001
-12.6021
-12.6065
-12.6132
-12.6236
-12.6393
-12.892
-12.9034
-12.9105
-12.9145
-12.9161
-12.9155
-12.9128
-12.9082
-12.902
-12.8945
-12.8861
-12.877
-12.8674
-12.8577
-12.848
-12.8383
-12.8288
-12.8194
-12.8102
-12.8011
-12.7921
-12.7831
-12.774
-12.7649
-12.7555
-12.7459
-12.736
-12.7258
-12.7152
-12.7042
-12.6929
-12.6812
-12.6694
-12.6573
-12.6451
-12.6331
-12.6212
-12.6098
-12.599
-12.5891
-12.5804
-12.573
-12.5675
-12.5639
-12.5628
-12.5645
-12.5691
-12.5767
-12.5888
-12.6075
-12.921
-12.9353
-12.9442
-12.9492
-12.9512
-12.9504
-12.947
-12.9412
-12.9337
-12.9246
-12.9144
-12.9035
-12.8922
-12.8806
-12.869
-12.8576
-12.8463
-12.8352
-12.8244
-12.8137
-12.8031
-12.7925
-12.7819
-12.7712
-12.7602
-12.749
-12.7373
-12.7253
-12.7128
-12.6999
-12.6865
-12.6726
-12.6584
-12.6438
-12.6291
-12.6144
-12.5998
-12.5855
-12.5719
-12.5592
-12.5478
-12.538
-12.5303
-12.525
-12.5227
-12.5237
-12.5283
-12.5367
-12.5506
-12.5723
-12.9526
-12.9702
-12.9809
-12.9867
-12.9889
-12.9876
-12.9832
-12.976
-12.9667
-12.9558
-12.9436
-12.9307
-12.9173
-12.9037
-12.8902
-12.8769
-12.8638
-12.8511
-12.8386
-12.8263
-12.8141
-12.8021
-12.7899
-12.7777
-12.7651
-12.7523
-12.739
-12.7252
-12.7109
-12.696
-12.6805
-12.6644
-12.6478
-12.6307
-12.6133
-12.5957
-12.5781
-12.5607
-12.544
-12.5281
-12.5137
-12.501
-12.4907
-12.4832
-12.4792
-12.4792
-12.4836
-12.4925
-12.5081
-12.5331
-12.9877
-13.0088
-13.0214
-13.0278
-13.0299
-13.0278
-13.0219
-13.0129
-13.0015
-12.9882
-12.9737
-12.9584
-12.9427
-12.927
-12.9114
-12.8961
-12.8812
-12.8667
-12.8526
-12.8387
-12.8251
-12.8115
-12.7979
-12.7842
-12.7702
-12.7558
-12.7409
-12.7255
-12.7093
-12.6925
-12.6749
-12.6566
-12.6376
-12.6179
-12.5976
-12.577
-12.5562
-12.5355
-12.5152
-12.4958
-12.4778
-12.4617
-12.4482
-12.4379
-12.4317
-12.4302
-12.434
-12.4433
-12.4606
-12.4891
-13.0272
-13.052
-13.0665
-13.0734
-13.0749
-13.0715
-13.0636
-13.0522
-13.038
-13.022
-13.0047
-12.9866
-12.9684
-12.9502
-12.9324
-12.9151
-12.8983
-12.882
-12.8662
-12.8507
-12.8356
-12.8206
-12.8057
-12.7905
-12.7751
-12.7593
-12.7429
-12.7258
-12.708
-12.6893
-12.6697
-12.6492
-12.6277
-12.6053
-12.5822
-12.5584
-12.5341
-12.5097
-12.4856
-12.4621
-12.44
-12.4198
-12.4024
-12.3887
-12.3795
-12.3758
-12.3785
-12.3879
-12.4068
-12.4391
-13.0719
-13.1011
-13.1174
-13.1245
-13.1249
-13.1194
-13.1087
-13.0941
-13.0766
-13.0571
-13.0364
-13.0153
-12.9941
-12.9732
-12.953
-12.9334
-12.9146
-12.8965
-12.879
-12.8621
-12.8455
-12.8292
-12.8129
-12.7965
-12.7798
-12.7626
-12.7448
-12.7263
-12.7068
-12.6864
-12.6648
-12.6421
-12.6182
-12.5932
-12.567
-12.5399
-12.512
-12.4836
-12.4552
-12.4272
-12.4003
-12.3753
-12.3531
-12.3349
-12.3218
-12.3152
-12.316
-12.325
-12.3455
-12.382
-13.1234
-13.1574
-13.1756
-13.1823
-13.1808
-13.1723
-13.1578
-13.139
-13.1172
-13.0935
-13.0688
-13.044
-13.0195
-12.9956
-12.9727
-12.9508
-12.9299
-12.91
-12.8909
-12.8725
-12.8545
-12.8369
-12.8194
-12.8018
-12.7839
-12.7655
-12.7465
-12.7266
-12.7056
-12.6835
-12.6601
-12.6353
-12.6091
-12.5814
-12.5522
-12.5217
-12.4899
-12.4573
-12.4241
-12.3909
-12.3585
-12.3278
-12.2999
-12.2761
-12.2579
-12.2471
-12.2451
-12.253
-12.2749
-12.3162
-13.1834
-13.2231
-13.243
-13.2484
-13.2439
-13.2309
-13.2113
-13.187
-13.1598
-13.1309
-13.1015
-13.0724
-13.0441
-13.017
-12.9912
-12.9669
-12.9438
-12.9221
-12.9013
-12.8815
-12.8623
-12.8436
-12.825
-12.8063
-12.7874
-12.7679
-12.7478
-12.7266
-12.7044
-12.6808
-12.6557
-12.629
-12.6005
-12.5702
-12.538
-12.5039
-12.4682
-12.431
-12.3926
-12.3537
-12.315
-12.2775
-12.2425
-12.2116
-12.1868
-12.1703
-12.1641
-12.1698
-12.1929
-12.2396
-13.2542
-13.3006
-13.3219
-13.3248
-13.3154
-13.2962
-13.2696
-13.2382
-13.2041
-13.169
-13.134
-13.1
-13.0675
-13.0368
-13.008
-12.981
-12.9559
-12.9323
-12.9101
-12.8889
-12.8686
-12.8488
-12.8293
-12.8098
-12.79
-12.7696
-12.7485
-12.7264
-12.703
-12.6781
-12.6515
-12.623
-12.5924
-12.5596
-12.5245
-12.487
-12.4471
-12.4051
-12.3611
-12.3158
-12.2699
-12.2244
-12.1808
-12.1411
-12.1076
-12.0832
-12.0707
-12.0728
-12.0964
-12.1495
-13.3392
-13.3937
-13.4155
-13.4138
-13.397
-13.3688
-13.3328
-13.2923
-13.2497
-13.207
-13.1655
-13.126
-13.0888
-13.0543
-13.0223
-12.9928
-12.9656
-12.9403
-12.9166
-12.8943
-12.873
-12.8524
-12.8321
-12.8119
-12.7915
-12.7705
-12.7487
-12.7258
-12.7015
-12.6755
-12.6477
-12.6176
-12.5852
-12.55
-12.5121
-12.4712
-12.4272
-12.3801
-12.3302
-12.2779
-12.2238
-12.1689
-12.115
-12.0641
-12.0193
-11.9841
-11.9625
-11.9585
-11.9815
-12.0422
-13.4434
-13.5075
-13.5281
-13.5184
-13.4903
-13.4495
-13.4009
-13.3486
-13.2956
-13.244
-13.195
-13.1493
-13.1072
-13.0687
-13.0335
-13.0015
-12.9723
-12.9455
-12.9206
-12.8974
-12.8753
-12.8541
-12.8334
-12.8127
-12.7919
-12.7705
-12.7482
-12.7248
-12.6999
-12.6731
-12.6443
-12.613
-12.5789
-12.5418
-12.5012
-12.457
-12.409
-12.3569
-12.3008
-12.2409
-12.1776
-12.112
-12.0456
-11.9808
-11.9211
-11.8711
-11.8361
-11.8222
-11.8426
-11.912
-13.5745
-13.6495
-13.6655
-13.6421
-13.597
-13.5385
-13.4732
-13.406
-13.3405
-13.2785
-13.2211
-13.1688
-13.1215
-13.079
-13.0409
-13.0066
-12.9756
-12.9475
-12.9218
-12.8978
-12.8753
-12.8538
-12.8328
-12.812
-12.7911
-12.7695
-12.7471
-12.7235
-12.6982
-12.671
-12.6415
-12.6093
-12.574
-12.5352
-12.4924
-12.4453
-12.3934
-12.3364
-12.274
-12.206
-12.1328
-12.055
-11.9739
-11.8919
-11.8128
-11.7424
-11.6877
-11.6577
-11.6716
-11.7507
-13.7446
-13.8309
-13.8355
-13.7891
-13.7184
-13.6352
-13.5479
-13.4624
-13.382
-13.3084
-13.242
-13.1829
-13.1305
-13.0843
-13.0434
-13.0072
-12.975
-12.946
-12.9197
-12.8955
-12.8728
-12.8513
-12.8304
-12.8098
-12.789
-12.7677
-12.7455
-12.7219
-12.6967
-12.6694
-12.6397
-12.607
-12.5708
-12.5308
-12.4863
-12.4367
-12.3814
-12.3198
-12.2513
-12.1752
-12.0915
-12
-11.9018
-11.7988
-11.6949
-11.5966
-11.5129
-11.4568
-11.4564
-11.5448
-13.9752
-14.0684
-14.0479
-13.9634
-13.8544
-13.7373
-13.622
-13.5144
-13.4171
-13.3309
-13.2554
-13.1897
-13.1327
-13.0833
-13.0404
-13.0028
-12.9698
-12.9405
-12.9141
-12.8901
-12.8678
-12.8466
-12.8263
-12.8062
-12.7859
-12.7652
-12.7434
-12.7204
-12.6956
-12.6686
-12.639
-12.6063
-12.5699
-12.5292
-12.4836
-12.4322
-12.3743
-12.3087
-12.2346
-12.1508
-12.0563
-11.9505
-11.8331
-11.7051
-11.5698
-11.4337
-11.3076
-11.209
-11.1795
-11.2715
-14.3055
-14.3875
-14.3144
-14.1673
-14.0023
-13.8398
-13.6897
-13.5566
-13.4412
-13.3424
-13.2584
-13.1871
-13.1266
-13.075
-13.0309
-12.9929
-12.9598
-12.9308
-12.905
-12.8817
-12.8601
-12.8399
-12.8204
-12.8012
-12.7819
-12.762
-12.7412
-12.7191
-12.6951
-12.6689
-12.64
-12.6078
-12.5717
-12.5311
-12.4852
-12.4329
-12.3732
-12.3049
-12.2263
-12.1357
-12.0313
-11.911
-11.7731
-11.6167
-11.4429
-11.2568
-11.0692
-10.9021
-10.814
-10.8891
-14.8075
-14.8261
-14.6467
-14.3983
-14.1533
-13.9325
-13.7419
-13.5817
-13.4486
-13.3388
-13.248
-13.1729
-13.1105
-13.0583
-13.0143
-12.9769
-12.9448
-12.9169
-12.8923
-12.8702
-12.85
-12.8311
-12.813
-12.7951
-12.7772
-12.7586
-12.7391
-12.7182
-12.6956
-12.6706
-12.6429
-12.6119
-12.5769
-12.5372
-12.4918
-12.4398
-12.3798
-12.3101
-12.2288
-12.1334
-12.0209
-11.8878
-11.7299
-11.5433
-11.3249
-11.0751
-10.8007
-10.5242
-10.3207
-10.322
-15.6121
-15.4344
-15.0524
-14.647
-14.2921
-14.0005
-13.7665
-13.5806
-13.4332
-13.3158
-13.2217
-13.1456
-13.0836
-13.0327
-12.9904
-12.9549
-12.9248
-12.8989
-12.8763
-12.8562
-12.8378
-12.8207
-12.8044
-12.7883
-12.772
-12.7552
-12.7374
-12.7182
-12.6973
-12.6741
-12.6481
-12.6189
-12.5857
-12.5477
-12.5041
-12.4536
-12.3948
-12.3259
-12.2443
-12.1471
-12.0299
-11.8876
-11.7131
-11.4977
-11.2316
-10.9048
-10.5121
-10.0675
-9.64878
-9.43592
-17.0162
-16.2528
-15.5075
-14.88
-14.3883
-14.0202
-13.7473
-13.5433
-13.3887
-13.27
-13.1775
-13.1043
-13.0458
-12.9984
-12.9596
-12.9274
-12.9004
-12.8774
-12.8575
-12.8399
-12.824
-12.8092
-12.795
-12.7811
-12.7669
-12.7521
-12.7364
-12.7193
-12.7005
-12.6795
-12.6558
-12.6289
-12.5982
-12.5629
-12.5221
-12.4747
-12.419
-12.3531
-12.2744
-12.1792
-12.0627
-11.9176
-11.7341
-11.4979
-11.1887
-10.7791
-10.2393
-9.55864
-8.75798
-7.92589
-19.8498
-17.2507
-15.8309
-14.9432
-14.3341
-13.9212
-13.6395
-13.4411
-13.2968
-13.189
-13.1066
-13.0426
-12.992
-12.9515
-12.9187
-12.8917
-12.8694
-12.8506
-12.8344
-12.8203
-12.8076
-12.7958
-12.7845
-12.7732
-12.7617
-12.7496
-12.7365
-12.7221
-12.706
-12.6879
-12.6673
-12.6437
-12.6165
-12.5852
-12.5488
-12.5062
-12.4562
-12.3968
-12.3256
-12.2389
-12.1319
-11.9968
-11.8221
-11.5894
-11.2684
-10.809
-10.1417
-9.18207
-7.67566
-4.95593
-24.7186
-18.3337
-15.6668
-14.5666
-13.9676
-13.6105
-13.3885
-13.2402
-13.1349
-13.0569
-12.9975
-12.9512
-12.9148
-12.8858
-12.8625
-12.8436
-12.8281
-12.8153
-12.8046
-12.7952
-12.7869
-12.7792
-12.7718
-12.7642
-12.7563
-12.7477
-12.7382
-12.7273
-12.715
-12.7008
-12.6843
-12.6653
-12.6433
-12.6176
-12.5878
-12.5529
-12.512
-12.4637
-12.4061
-12.3367
-12.2517
-12.1454
-12.0086
-11.8247
-11.5619
-11.1564
-10.4918
-9.29657
-6.5119
-0.000183747
)
;

boundaryField
{
    movingWallTop
    {
        type            zeroGradient;
    }
    movingWallBottom
    {
        type            zeroGradient;
    }
    fixedWalls
    {
        type            zeroGradient;
    }
    frontAndBack
    {
        type            empty;
    }
}


// ************************************************************************* //
