/*--------------------------------*- C++ -*----------------------------------*\
  =========                 |
  \\      /  F ield         | OpenFOAM: The Open Source CFD Toolbox
   \\    /   O peration     | Website:  https://openfoam.org
    \\  /    A nd           | Version:  7
     \\/     M anipulation  |
\*---------------------------------------------------------------------------*/
FoamFile
{
    version     2.0;
    format      ascii;
    class       surfaceScalarField;
    location    "0.055";
    object      phi;
}
// * * * * * * * * * * * * * * * * * * * * * * * * * * * * * * * * * * * * * //

dimensions      [0 3 -1 0 0 0 0];

internalField   nonuniform List<scalar> 
4900
(
5.45467e-06
-5.45466e-06
9.95319e-06
-4.49852e-06
1.2694e-05
-2.74079e-06
1.44122e-05
-1.71825e-06
1.55284e-05
-1.11618e-06
1.62815e-05
-7.53098e-07
1.68125e-05
-5.30995e-07
1.72029e-05
-3.90443e-07
1.75001e-05
-2.97125e-07
1.77322e-05
-2.32098e-07
1.7917e-05
-1.84836e-07
1.80663e-05
-1.49273e-07
1.8188e-05
-1.21759e-07
1.8288e-05
-9.99954e-08
1.83705e-05
-8.24675e-08
1.84386e-05
-6.81363e-08
1.84949e-05
-5.6262e-08
1.85412e-05
-4.63002e-08
1.8579e-05
-3.78386e-08
1.86096e-05
-3.05559e-08
1.86338e-05
-2.41947e-08
1.86523e-05
-1.85435e-08
1.86658e-05
-1.34229e-08
1.86744e-05
-8.67664e-09
1.86786e-05
-4.16394e-09
1.86783e-05
2.50434e-10
1.86737e-05
4.68777e-09
1.86644e-05
9.28481e-09
1.86502e-05
1.41755e-08
1.86307e-05
1.95104e-08
1.86052e-05
2.54608e-08
1.8573e-05
3.22289e-08
1.85329e-05
4.00614e-08
1.84837e-05
4.92685e-08
1.84234e-05
6.02516e-08
1.83499e-05
7.35441e-08
1.826e-05
8.98759e-08
1.81497e-05
1.10276e-07
1.80135e-05
1.36243e-07
1.78434e-05
1.70052e-07
1.76281e-05
2.15306e-07
1.73501e-05
2.77994e-07
1.69815e-05
3.6858e-07
1.64754e-05
5.06146e-07
1.57493e-05
7.26062e-07
1.46575e-05
1.09188e-06
1.29451e-05
1.71233e-06
1.0162e-05
2.78315e-06
5.55725e-06
4.60473e-06
5.55725e-06
-1.19263e-07
-5.33539e-06
1.83186e-06
-6.44965e-06
4.41341e-06
-5.32234e-06
6.72957e-06
-4.03441e-06
8.61e-06
-2.99661e-06
1.00931e-05
-2.23625e-06
1.12587e-05
-1.69654e-06
1.21807e-05
-1.31249e-06
1.29177e-05
-1.03412e-06
1.35132e-05
-8.27598e-07
1.39991e-05
-6.70721e-07
1.43988e-05
-5.48927e-07
1.47295e-05
-4.52534e-07
1.50045e-05
-3.74964e-07
1.52337e-05
-3.11635e-07
1.54248e-05
-2.59268e-07
1.5584e-05
-2.15458e-07
1.57161e-05
-1.78392e-07
1.58249e-05
-1.46669e-07
1.59136e-05
-1.19182e-07
1.59844e-05
-9.50304e-08
1.60393e-05
-7.34661e-08
1.60797e-05
-5.38483e-08
1.61067e-05
-3.56128e-08
1.61208e-05
-1.82464e-08
1.61223e-05
-1.26772e-09
1.61112e-05
1.57963e-08
1.6087e-05
3.3421e-08
1.60491e-05
5.21094e-08
1.59962e-05
7.2411e-08
1.59267e-05
9.49486e-08
1.58385e-05
1.20452e-07
1.57287e-05
1.49805e-07
1.55939e-05
1.84104e-07
1.54294e-05
2.24748e-07
1.52294e-05
2.7357e-07
1.49862e-05
3.33022e-07
1.469e-05
4.06474e-07
1.43276e-05
4.98665e-07
1.38812e-05
6.16439e-07
1.33266e-05
7.69929e-07
1.26301e-05
9.74494e-07
1.17449e-05
1.2538e-06
1.06066e-05
1.64444e-06
9.13114e-06
2.20152e-06
7.22404e-06
2.99898e-06
4.83132e-06
4.10505e-06
2.12093e-06
5.49354e-06
1.07137e-08
6.71495e-06
5.56797e-06
-1.08241e-06
-4.25299e-06
-7.54024e-07
-6.77803e-06
5.89638e-07
-6.666e-06
2.30206e-06
-5.74683e-06
4.01352e-06
-4.70807e-06
5.56539e-06
-3.78811e-06
6.91042e-06
-3.04157e-06
8.05218e-06
-2.45424e-06
9.0132e-06
-1.99515e-06
9.82023e-06
-1.63462e-06
1.04983e-05
-1.34877e-06
1.10688e-05
-1.11948e-06
1.15497e-05
-9.33386e-07
1.19554e-05
-7.80637e-07
1.22976e-05
-6.53924e-07
1.25861e-05
-5.4776e-07
1.28286e-05
-4.57953e-07
1.30315e-05
-3.81241e-07
1.31998e-05
-3.15041e-07
1.33379e-05
-2.57261e-07
1.34491e-05
-2.06169e-07
1.35359e-05
-1.603e-07
1.36004e-05
-1.18384e-07
1.36441e-05
-7.92874e-08
1.36678e-05
-4.1969e-08
1.3672e-05
-5.44456e-09
1.36566e-05
3.12553e-08
1.36209e-05
6.91087e-08
1.35638e-05
1.09148e-07
1.34837e-05
1.52495e-07
1.33783e-05
2.00416e-07
1.32444e-05
2.54375e-07
1.3078e-05
3.16123e-07
1.28743e-05
3.87803e-07
1.2627e-05
4.72096e-07
1.23281e-05
5.72432e-07
1.19679e-05
6.93282e-07
1.15338e-05
8.40575e-07
1.10101e-05
1.02229e-06
1.03772e-05
1.24933e-06
9.61054e-06
1.53663e-06
8.68033e-06
1.9047e-06
7.55305e-06
2.38108e-06
6.19681e-06
3.00068e-06
4.5969e-06
3.80144e-06
2.79097e-06
4.80491e-06
9.37716e-07
5.9583e-06
-5.70766e-07
7.00202e-06
-1.03818e-06
7.18236e-06
4.52979e-06
-9.13015e-07
-3.33997e-06
-1.34144e-06
-6.3496e-06
-9.366e-07
-7.07084e-06
2.1659e-08
-6.70509e-06
1.23954e-06
-5.92596e-06
2.51757e-06
-5.06613e-06
3.74295e-06
-4.26696e-06
4.86298e-06
-3.57427e-06
5.8598e-06
-2.99197e-06
6.73356e-06
-2.50838e-06
7.49265e-06
-2.10786e-06
8.14857e-06
-1.7754e-06
8.7133e-06
-1.49811e-06
9.19812e-06
-1.26545e-06
9.61315e-06
-1.06895e-06
9.96723e-06
-9.01845e-07
1.0268e-05
-7.58689e-07
1.05218e-05
-6.35081e-07
1.07342e-05
-5.27408e-07
1.09096e-05
-4.32656e-07
1.10517e-05
-3.48272e-07
1.11634e-05
-2.72048e-07
1.12471e-05
-2.02034e-07
1.13042e-05
-1.36462e-07
1.1336e-05
-7.36931e-08
1.13427e-05
-1.2159e-08
1.13243e-05
4.96875e-08
1.12799e-05
1.13416e-07
1.12084e-05
1.80676e-07
1.11077e-05
2.53252e-07
1.09749e-05
3.33135e-07
1.08067e-05
4.22604e-07
1.05985e-05
5.24334e-07
1.03448e-05
6.41536e-07
1.00387e-05
7.78133e-07
9.67216e-06
9.38997e-07
9.23519e-06
1.13025e-06
8.71609e-06
1.35968e-06
8.10121e-06
1.63717e-06
7.37523e-06
1.9753e-06
6.52212e-06
2.38974e-06
5.52755e-06
2.89927e-06
4.3843e-06
3.52434e-06
3.10288e-06
4.2821e-06
1.73086e-06
5.17346e-06
3.83046e-07
6.15272e-06
-7.24812e-07
7.06616e-06
-1.26583e-06
7.54304e-06
-9.15896e-07
6.83242e-06
3.61389e-06
-6.64747e-07
-2.67523e-06
-1.29714e-06
-5.71721e-06
-1.4179e-06
-6.95008e-06
-1.0422e-06
-7.08079e-06
-3.24525e-07
-6.64364e-06
5.77587e-07
-5.96824e-06
1.54589e-06
-5.23526e-06
2.5045e-06
-4.53288e-06
3.41021e-06
-3.89767e-06
4.24162e-06
-3.33979e-06
4.99072e-06
-2.85697e-06
5.65717e-06
-2.44185e-06
6.24471e-06
-2.08565e-06
6.75903e-06
-1.77977e-06
7.20649e-06
-1.51641e-06
7.59345e-06
-1.28881e-06
7.92591e-06
-1.09115e-06
8.20929e-06
-9.18461e-07
8.44838e-06
-7.66489e-07
8.64728e-06
-6.31557e-07
8.80946e-06
-5.10451e-07
8.93772e-06
-4.00317e-07
9.03427e-06
-2.98579e-07
9.10067e-06
-2.02864e-07
9.13791e-06
-1.10936e-07
9.14639e-06
-2.06351e-08
9.1259e-06
7.01791e-08
9.07563e-06
1.63685e-07
8.99414e-06
2.62164e-07
8.87933e-06
3.68066e-07
8.72837e-06
4.84094e-07
8.53768e-06
6.13292e-07
8.30285e-06
7.59165e-07
8.01857e-06
9.25814e-07
7.6786e-06
1.1181e-06
7.27575e-06
1.34185e-06
6.80194e-06
1.60406e-06
6.24849e-06
1.91313e-06
5.60668e-06
2.27898e-06
4.86894e-06
2.71305e-06
4.03106e-06
3.22762e-06
3.09615e-06
3.83418e-06
2.08119e-06
4.53929e-06
1.02717e-06
5.33611e-06
1.28031e-08
6.18783e-06
-8.32714e-07
6.99824e-06
-1.32953e-06
7.56297e-06
-1.29302e-06
7.50653e-06
-6.84976e-07
6.22438e-06
2.92892e-06
-4.70747e-07
-2.20448e-06
-1.09957e-06
-5.08839e-06
-1.46781e-06
-6.58184e-06
-1.46884e-06
-7.07976e-06
-1.14844e-06
-6.96404e-06
-6.01573e-07
-6.51511e-06
7.81025e-08
-5.91494e-06
8.16737e-07
-5.27151e-06
1.56271e-06
-4.64365e-06
2.28296e-06
-4.06005e-06
2.95811e-06
-3.53212e-06
3.57812e-06
-3.06186e-06
4.13901e-06
-2.64654e-06
4.64054e-06
-2.2813e-06
5.08465e-06
-1.96053e-06
5.47446e-06
-1.67861e-06
5.81356e-06
-1.43025e-06
6.10566e-06
-1.21056e-06
6.35431e-06
-1.01514e-06
6.56273e-06
-8.39982e-07
6.73375e-06
-6.81468e-07
6.86972e-06
-5.36281e-07
6.97249e-06
-4.01351e-07
7.04341e-06
-2.73788e-07
7.0833e-06
-1.50829e-07
7.09244e-06
-2.97749e-08
7.07056e-06
9.20648e-08
7.01681e-06
2.17433e-07
6.92978e-06
3.49191e-07
6.80746e-06
4.90385e-07
6.64723e-06
6.4433e-07
6.44583e-06
8.14691e-07
6.19941e-06
1.00559e-06
5.90352e-06
1.2217e-06
5.55326e-06
1.46837e-06
5.14339e-06
1.75172e-06
4.66877e-06
2.07869e-06
4.12491e-06
2.45698e-06
3.5091e-06
2.8948e-06
2.82203e-06
3.40012e-06
2.07054e-06
3.97912e-06
1.27154e-06
4.63318e-06
4.57494e-07
5.35334e-06
-3.17047e-07
6.11065e-06
-9.69933e-07
6.84071e-06
-1.39234e-06
7.42065e-06
-1.46917e-06
7.6398e-06
-1.13602e-06
7.17337e-06
-4.96525e-07
5.58489e-06
2.43239e-06
-3.39784e-07
-1.86469e-06
-9.01709e-07
-4.52646e-06
-1.36357e-06
-6.11998e-06
-1.58394e-06
-6.85939e-06
-1.54437e-06
-7.0036e-06
-1.2869e-06
-6.77259e-06
-8.72821e-07
-6.32902e-06
-3.61198e-07
-5.78313e-06
1.99719e-07
-5.20456e-06
7.74104e-07
-4.63443e-06
1.33716e-06
-4.09517e-06
1.8728e-06
-3.5975e-06
2.37135e-06
-3.1451e-06
2.82767e-06
-2.73762e-06
3.23964e-06
-2.3725e-06
3.60712e-06
-2.04609e-06
3.93115e-06
-1.75429e-06
4.21347e-06
-1.49288e-06
4.45608e-06
-1.25775e-06
4.66104e-06
-1.04494e-06
4.83028e-06
-8.50707e-07
4.96548e-06
-6.71481e-07
5.068e-06
-5.03868e-07
5.13881e-06
-3.44603e-07
5.17849e-06
-1.90504e-07
5.18714e-06
-3.84322e-08
5.16444e-06
1.14764e-07
5.10958e-06
2.723e-07
5.02126e-06
4.37511e-07
4.89773e-06
6.13917e-07
4.73677e-06
8.05284e-07
4.53577e-06
1.01569e-06
4.29177e-06
1.24959e-06
4.00161e-06
1.51186e-06
3.66215e-06
1.80783e-06
3.27062e-06
2.14325e-06
2.82516e-06
2.52414e-06
2.32568e-06
2.95646e-06
1.77507e-06
3.44541e-06
1.181e-06
3.99418e-06
5.58339e-07
4.60178e-06
-6.78242e-08
5.25935e-06
-6.58834e-07
5.94435e-06
-1.16004e-06
6.61185e-06
-1.50173e-06
7.18241e-06
-1.60844e-06
7.52735e-06
-1.42393e-06
7.45529e-06
-9.59595e-07
6.70903e-06
-3.66532e-07
4.99183e-06
2.06586e-06
-2.54862e-07
-1.60983e-06
-7.40736e-07
-4.04059e-06
-1.22084e-06
-5.63988e-06
-1.55846e-06
-6.52176e-06
-1.70458e-06
-6.85748e-06
-1.66507e-06
-6.8121e-06
-1.47256e-06
-6.52152e-06
-1.1679e-06
-6.08779e-06
-7.90046e-07
-5.58242e-06
-3.71698e-07
-5.05278e-06
6.17743e-08
-4.52864e-06
4.91806e-07
-4.02753e-06
9.05492e-07
-3.55878e-06
1.29434e-06
-3.12646e-06
1.65312e-06
-2.73128e-06
1.97898e-06
-2.37195e-06
2.27066e-06
-2.04596e-06
2.52796e-06
-1.75019e-06
2.75137e-06
-1.48115e-06
2.94167e-06
-1.23525e-06
3.09983e-06
-1.00886e-06
3.22675e-06
-7.984e-07
3.3232e-06
-6.0032e-07
3.38973e-06
-4.11134e-07
3.42661e-06
-2.27383e-07
3.43379e-06
-4.56098e-08
3.41088e-06
1.37676e-07
3.35714e-06
3.26035e-07
3.27151e-06
5.23144e-07
3.15259e-06
7.32834e-07
2.99874e-06
9.5913e-07
2.80815e-06
1.20629e-06
2.57894e-06
1.47879e-06
2.30944e-06
1.78136e-06
1.99843e-06
2.11884e-06
1.64562e-06
2.49606e-06
1.25227e-06
2.91749e-06
8.22094e-07
3.38664e-06
3.6241e-07
3.90509e-06
-1.14343e-07
4.47094e-06
-5.88847e-07
5.07629e-06
-1.03314e-06
5.70364e-06
-1.40948e-06
6.32069e-06
-1.67108e-06
6.87345e-06
-1.76687e-06
7.2782e-06
-1.65341e-06
7.4139e-06
-1.31736e-06
7.11923e-06
-8.09172e-07
6.20085e-06
-2.8111e-07
4.46376e-06
1.78475e-06
-1.99278e-07
-1.41055e-06
-6.17901e-07
-3.62196e-06
-1.08352e-06
-5.17427e-06
-1.47784e-06
-6.12744e-06
-1.74139e-06
-6.59394e-06
-1.85868e-06
-6.6948e-06
-1.84097e-06
-6.53923e-06
-1.71246e-06
-6.21631e-06
-1.50113e-06
-5.79375e-06
-1.23357e-06
-5.32034e-06
-9.32598e-07
-4.82962e-06
-6.16506e-07
-4.34362e-06
-2.99262e-07
-3.87603e-06
8.90907e-09
-3.43463e-06
3.00825e-07
-3.0232e-06
5.71657e-07
-2.64278e-06
8.18344e-07
-2.29265e-06
1.03909e-06
-1.97094e-06
1.23298e-06
-1.67505e-06
1.39968e-06
-1.40195e-06
1.53917e-06
-1.14835e-06
1.6516e-06
-9.1083e-07
1.73715e-06
-6.8587e-07
1.79593e-06
-4.69914e-07
1.82791e-06
-2.59363e-07
1.83288e-06
-5.05819e-08
1.81043e-06
1.60124e-07
1.75994e-06
3.76522e-07
1.68062e-06
6.02472e-07
1.5715e-06
8.41946e-07
1.4316e-06
1.09903e-06
1.25996e-06
1.37792e-06
1.05588e-06
1.68288e-06
8.19116e-07
2.01812e-06
5.50283e-07
2.38767e-06
2.51288e-07
2.79506e-06
-7.40385e-08
3.24282e-06
-4.19156e-07
3.73175e-06
-7.73864e-07
4.2598e-06
-1.12325e-06
4.82032e-06
-1.44672e-06
5.39976e-06
-1.71743e-06
5.97435e-06
-1.90284e-06
6.5061e-06
-1.96733e-06
6.93794e-06
-1.87845e-06
7.18932e-06
-1.61822e-06
7.15367e-06
-1.20022e-06
6.70123e-06
-6.90487e-07
5.69112e-06
-2.24433e-07
3.99771e-06
1.56032e-06
-1.61934e-07
-1.24862e-06
-5.25971e-07
-3.25793e-06
-9.65473e-07
-4.73476e-06
-1.38263e-06
-5.71029e-06
-1.71794e-06
-6.25862e-06
-1.94497e-06
-6.46777e-06
-2.06066e-06
-6.42354e-06
-2.07599e-06
-6.20098e-06
-2.00869e-06
-5.86105e-06
-1.87837e-06
-5.45066e-06
-1.70366e-06
-5.00432e-06
-1.50084e-06
-4.54644e-06
-1.28332e-06
-4.09355e-06
-1.06169e-06
-3.65626e-06
-8.44039e-07
-3.24085e-06
-6.36337e-07
-2.85048e-06
-4.42875e-07
-2.48611e-06
-2.66633e-07
-2.14718e-06
-1.0962e-07
-1.83206e-06
2.6854e-08
-1.53842e-06
1.41958e-07
-1.26346e-06
2.35163e-07
-1.00403e-06
3.06108e-07
-7.56815e-07
3.54502e-07
-5.18307e-07
3.80051e-07
-2.84913e-07
3.82416e-07
-5.29469e-08
3.6119e-07
1.8135e-07
3.15905e-07
4.21807e-07
2.46057e-07
6.72319e-07
1.51171e-07
9.36832e-07
3.08904e-08
1.21931e-06
-1.14877e-07
1.52369e-06
-2.85772e-07
1.85377e-06
-4.80715e-07
2.21306e-06
-6.9757e-07
2.60453e-06
-9.32704e-07
3.03019e-06
-1.18046e-06
3.49058e-06
-1.43255e-06
3.98385e-06
-1.67741e-06
4.50466e-06
-1.89962e-06
5.04253e-06
-2.07966e-06
5.5798e-06
-2.19428e-06
6.08897e-06
-2.21804e-06
6.52986e-06
-2.12681e-06
6.84671e-06
-1.90388e-06
6.96639e-06
-1.54922e-06
6.79901e-06
-1.0913e-06
6.2433e-06
-5.98684e-07
5.19851e-06
-1.85626e-07
3.58465e-06
1.37469e-06
-1.36106e-07
-1.11251e-06
-4.57307e-07
-2.93673e-06
-8.68749e-07
-4.32332e-06
-1.29083e-06
-5.28821e-06
-1.66862e-06
-5.88083e-06
-1.97119e-06
-6.1652e-06
-2.18673e-06
-6.20801e-06
-2.31658e-06
-6.07112e-06
-2.36996e-06
-5.80767e-06
-2.35982e-06
-5.4608e-06
-2.30015e-06
-5.06399e-06
-2.20427e-06
-4.64232e-06
-2.084e-06
-4.21382e-06
-1.94931e-06
-3.79094e-06
-1.80833e-06
-3.38184e-06
-1.66745e-06
-2.99136e-06
-1.53163e-06
-2.62194e-06
-1.40458e-06
-2.27422e-06
-1.28909e-06
-1.94755e-06
-1.18718e-06
-1.64033e-06
-1.10032e-06
-1.35031e-06
-1.02959e-06
-1.07476e-06
-9.75806e-07
-8.10604e-07
-9.39574e-07
-5.5454e-07
-9.21402e-07
-3.03084e-07
-9.21722e-07
-5.26272e-08
-9.40904e-07
2.00531e-07
-9.79249e-07
4.60152e-07
-1.03696e-06
7.30026e-07
-1.11405e-06
1.01392e-06
-1.21028e-06
1.31554e-06
-1.32497e-06
1.63839e-06
-1.45687e-06
1.98566e-06
-1.60382e-06
2.36002e-06
-1.76255e-06
2.76326e-06
-1.92826e-06
3.1959e-06
-2.09422e-06
3.65654e-06
-2.25143e-06
4.14105e-06
-2.3882e-06
4.64143e-06
-2.49009e-06
5.14442e-06
-2.54014e-06
5.62985e-06
-2.51986e-06
6.06869e-06
-2.41126e-06
6.42125e-06
-2.20036e-06
6.63581e-06
-1.88251e-06
6.64854e-06
-1.46929e-06
6.3858e-06
-9.96011e-07
5.77002e-06
-5.2747e-07
4.72997e-06
-1.58043e-07
3.21522e-06
1.21665e-06
-1.17759e-07
-9.94755e-07
-4.05767e-07
-2.64872e-06
-7.91257e-07
-3.93783e-06
-1.20946e-06
-4.87e-06
-1.61149e-06
-5.4788e-06
-1.96561e-06
-5.81109e-06
-2.2551e-06
-5.91851e-06
-2.47477e-06
-5.85145e-06
-2.62722e-06
-5.65523e-06
-2.71968e-06
-5.36833e-06
-2.76166e-06
-5.02202e-06
-2.76324e-06
-4.64074e-06
-2.73411e-06
-4.24295e-06
-2.68299e-06
-3.84206e-06
-2.6174e-06
-3.44743e-06
-2.54361e-06
-3.06515e-06
-2.46672e-06
-2.69883e-06
-2.39081e-06
-2.35013e-06
-2.31909e-06
-2.01927e-06
-2.25406e-06
-1.70537e-06
-2.19762e-06
-1.40675e-06
-2.15126e-06
-1.12112e-06
-2.11609e-06
-8.45768e-07
-2.09299e-06
-5.77642e-07
-2.0826e-06
-3.13473e-07
-2.0854e-06
-4.98276e-08
-2.1017e-06
2.16829e-07
-2.13162e-06
4.90077e-07
-2.17508e-06
7.73485e-07
-2.23169e-06
1.07054e-06
-2.30069e-06
1.38454e-06
-2.38079e-06
1.71848e-06
-2.47e-06
2.07487e-06
-2.56544e-06
2.45546e-06
-2.66308e-06
2.8609e-06
-2.7575e-06
3.29032e-06
-2.84163e-06
3.74067e-06
-2.90655e-06
4.20596e-06
-2.94141e-06
4.67629e-06
-2.93369e-06
5.1367e-06
-2.86975e-06
5.56591e-06
-2.73613e-06
5.93508e-06
-2.52167e-06
6.20679e-06
-2.22066e-06
6.3348e-06
-1.83704e-06
6.26492e-06
-1.38924e-06
5.938e-06
-9.14577e-07
5.29536e-06
-4.7155e-07
4.28694e-06
-1.37714e-07
2.88139e-06
1.07893e-06
-1.04431e-07
-8.90324e-07
-3.66808e-07
-2.38634e-06
-7.29844e-07
-3.5748e-06
-1.14039e-06
-4.45946e-06
-1.55557e-06
-5.06362e-06
-1.94472e-06
-5.42193e-06
-2.28877e-06
-5.57446e-06
-2.57829e-06
-5.56194e-06
-2.81102e-06
-5.4225e-06
-2.98958e-06
-5.18977e-06
-3.11949e-06
-4.89211e-06
-3.2077e-06
-4.55253e-06
-3.26157e-06
-4.18907e-06
-3.28824e-06
-3.81539e-06
-3.29422e-06
-3.44145e-06
-3.28525e-06
-3.07413e-06
-3.26621e-06
-2.71787e-06
-3.24119e-06
-2.37515e-06
-3.21354e-06
-2.04691e-06
-3.18599e-06
-1.73292e-06
-3.16069e-06
-1.43205e-06
-3.13937e-06
-1.14245e-06
-3.12334e-06
-8.61792e-07
-3.11363e-06
-5.87354e-07
-3.11096e-06
-3.1614e-07
-3.11582e-06
-4.49716e-08
-3.12842e-06
2.29435e-07
-3.14874e-06
5.10394e-07
-3.17642e-06
8.01165e-07
-3.21075e-06
1.10486e-06
-3.25054e-06
1.42433e-06
-3.29404e-06
1.76199e-06
-3.3388e-06
2.11963e-06
-3.38147e-06
2.49813e-06
-3.41769e-06
2.89712e-06
-3.44189e-06
3.31452e-06
-3.4472e-06
3.74598e-06
-3.42542e-06
4.18419e-06
-3.36719e-06
4.61806e-06
-3.26237e-06
5.03188e-06
-3.10087e-06
5.40441e-06
-2.87399e-06
5.7082e-06
-2.57637e-06
5.90917e-06
-2.20863e-06
5.96706e-06
-1.78047e-06
5.83677e-06
-1.31389e-06
5.47141e-06
-8.45493e-07
4.82696e-06
-4.2697e-07
3.86842e-06
-1.22244e-07
2.57666e-06
9.5669e-07
-9.45785e-08
-7.95745e-07
-3.37156e-07
-2.14376e-06
-6.81429e-07
-3.23052e-06
-1.08318e-06
-4.05771e-06
-1.50493e-06
-4.64187e-06
-1.91791e-06
-5.00895e-06
-2.30223e-06
-5.19015e-06
-2.64586e-06
-5.21831e-06
-2.94314e-06
-5.12521e-06
-3.19309e-06
-4.93982e-06
-3.3979e-06
-4.6873e-06
-3.56168e-06
-4.38875e-06
-3.68953e-06
-4.06122e-06
-3.78687e-06
-3.71805e-06
-3.85901e-06
-3.36931e-06
-3.91087e-06
-3.02227e-06
-3.94687e-06
-2.68188e-06
-3.97082e-06
-2.35119e-06
-3.98601e-06
-2.03172e-06
-3.99517e-06
-1.72377e-06
-4.00055e-06
-1.42667e-06
-4.00394e-06
-1.13905e-06
-4.00679e-06
-8.58948e-07
-4.01015e-06
-5.83991e-07
-4.01479e-06
-3.11507e-07
-4.02113e-06
-3.86247e-08
-4.02933e-06
2.37629e-07
-4.03917e-06
5.20239e-07
-4.05011e-06
8.12102e-07
-4.06116e-06
1.11591e-06
-4.07086e-06
1.43403e-06
-4.07715e-06
1.76828e-06
-4.07732e-06
2.11979e-06
-4.06784e-06
2.48866e-06
-4.04436e-06
2.87363e-06
-4.00153e-06
3.2717e-06
-3.93314e-06
3.67759e-06
-3.83211e-06
4.08316e-06
-3.69087e-06
4.47682e-06
-3.50187e-06
4.84288e-06
-3.25844e-06
5.16098e-06
-2.95606e-06
5.40581e-06
-2.59405e-06
5.54717e-06
-2.17765e-06
5.55065e-06
-1.72018e-06
5.37931e-06
-1.24508e-06
4.99631e-06
-7.86909e-07
4.3688e-06
-3.90903e-07
3.47241e-06
-1.10159e-07
2.29592e-06
8.46531e-07
-8.7197e-08
-7.08548e-07
-3.14452e-07
-1.91651e-06
-6.43365e-07
-2.90161e-06
-1.03653e-06
-3.66454e-06
-1.46105e-06
-4.21735e-06
-1.8903e-06
-4.5797e-06
-2.30442e-06
-4.77602e-06
-2.68996e-06
-4.83277e-06
-3.0389e-06
-4.77627e-06
-3.34756e-06
-4.63115e-06
-3.61544e-06
-4.41942e-06
-3.8442e-06
-4.15999e-06
-4.03687e-06
-3.86856e-06
-4.19719e-06
-3.55773e-06
-4.32917e-06
-3.23732e-06
-4.43681e-06
-2.91463e-06
-4.52384e-06
-2.59484e-06
-4.59369e-06
-2.28135e-06
-4.64935e-06
-1.97606e-06
-4.69342e-06
-1.6797e-06
-4.72808e-06
-1.39201e-06
-4.75512e-06
-1.11201e-06
-4.77595e-06
-8.38116e-07
-4.79163e-06
-5.68306e-07
-4.80289e-06
-3.00251e-07
-4.8101e-06
-3.14193e-08
-4.81328e-06
2.40818e-07
-4.81213e-06
5.19082e-07
-4.8059e-06
8.05878e-07
-4.79346e-06
1.10346e-06
-4.77314e-06
1.41371e-06
-4.74276e-06
1.73791e-06
-4.69953e-06
2.07656e-06
-4.64e-06
2.42913e-06
-4.56005e-06
2.79368e-06
-4.45489e-06
3.16655e-06
-4.3192e-06
3.54189e-06
-4.14728e-06
3.91124e-06
-3.93349e-06
4.26303e-06
-3.67279e-06
4.58217e-06
-3.36159e-06
4.84978e-06
-2.9989e-06
5.04312e-06
-2.58766e-06
5.13593e-06
-2.13634e-06
5.09932e-06
-1.66036e-06
4.90333e-06
-1.18329e-06
4.51924e-06
-7.37126e-07
3.92263e-06
-3.61351e-07
3.09663e-06
-1.00519e-07
2.03509e-06
7.46012e-07
-8.16131e-08
-6.26935e-07
-2.96991e-07
-1.70113e-06
-6.13491e-07
-2.58511e-06
-9.98903e-07
-3.27913e-06
-1.4241e-06
-3.79215e-06
-1.86452e-06
-4.13928e-06
-2.30082e-06
-4.33972e-06
-2.71883e-06
-4.41477e-06
-3.10899e-06
-4.38611e-06
-3.46563e-06
-4.27451e-06
-3.78613e-06
-4.09892e-06
-4.07012e-06
-3.87601e-06
-4.31878e-06
-3.61989e-06
-4.5343e-06
-3.34221e-06
-4.71945e-06
-3.05217e-06
-4.87721e-06
-2.75687e-06
-5.01059e-06
-2.46146e-06
-5.12246e-06
-2.16948e-06
-5.21544e-06
-1.88308e-06
-5.29187e-06
-1.60326e-06
-5.35377e-06
-1.33012e-06
-5.4028e-06
-1.06298e-06
-5.4403e-06
-8.0062e-07
-5.46724e-06
-5.41358e-07
-5.48429e-06
-2.83207e-07
-5.49172e-06
-2.39849e-08
-5.48948e-06
2.38578e-07
-5.47713e-06
5.06731e-07
-5.45383e-06
7.82578e-07
-5.41832e-06
1.06796e-06
-5.36889e-06
1.36428e-06
-5.30333e-06
1.67235e-06
-5.21895e-06
1.99218e-06
-5.11255e-06
2.32272e-06
-4.98044e-06
2.66157e-06
-4.81857e-06
3.00468e-06
-4.62267e-06
3.346e-06
-4.38852e-06
3.67709e-06
-4.11236e-06
3.98687e-06
-3.79148e-06
4.26129e-06
-3.42496e-06
4.48326e-06
-3.01465e-06
4.63281e-06
-2.56623e-06
4.68751e-06
-2.0903e-06
4.6234e-06
-1.60338e-06
4.41641e-06
-1.12843e-06
4.04429e-06
-6.94741e-07
3.48894e-06
-3.36901e-07
2.73879e-06
-9.27115e-08
1.7909e-06
6.533e-07
-7.73613e-08
-5.49574e-07
-2.83525e-07
-1.49497e-06
-5.90087e-07
-2.27855e-06
-9.68802e-07
-2.90042e-06
-1.39358e-06
-3.36737e-06
-1.84174e-06
-3.69112e-06
-2.29466e-06
-3.8868e-06
-2.73787e-06
-3.97156e-06
-3.16084e-06
-3.96314e-06
-3.55648e-06
-3.87887e-06
-3.92053e-06
-3.73488e-06
-4.25095e-06
-3.54559e-06
-4.54737e-06
-3.32347e-06
-4.81059e-06
-3.07898e-06
-5.04219e-06
-2.82057e-06
-5.2442e-06
-2.55486e-06
-5.41885e-06
-2.28681e-06
-5.56841e-06
-2.01992e-06
-5.69508e-06
-1.75641e-06
-5.80084e-06
-1.4975e-06
-5.88748e-06
-1.24348e-06
-5.95647e-06
-9.93988e-07
-6.00901e-06
-7.48077e-07
-6.04598e-06
-5.04392e-07
-6.06791e-06
-2.61277e-07
-6.075e-06
-1.6892e-08
-6.0671e-06
2.30679e-07
-6.04369e-06
4.83315e-07
-6.00385e-06
7.42743e-07
-5.9463e-06
1.0104e-06
-5.86933e-06
1.28731e-06
-5.77084e-06
1.57386e-06
-5.64834e-06
1.86969e-06
-5.49901e-06
2.17338e-06
-5.31973e-06
2.48229e-06
-5.10728e-06
2.79223e-06
-4.8585e-06
3.09722e-06
-4.57062e-06
3.38921e-06
-4.24164e-06
3.6579e-06
-3.87091e-06
3.89056e-06
-3.45976e-06
4.07211e-06
-3.01227e-06
4.18532e-06
-2.5361e-06
4.21134e-06
-2.04324e-06
4.13054e-06
-1.5506e-06
3.92376e-06
-1.08015e-06
3.57385e-06
-6.58649e-07
3.06744e-06
-3.16552e-07
2.3967e-06
-8.63225e-08
1.56067e-06
5.66978e-07
-7.41124e-08
-4.75461e-07
-2.73132e-07
-1.29595e-06
-5.71805e-07
-1.97987e-06
-9.44907e-07
-2.52732e-06
-1.36878e-06
-2.9435e-06
-1.82236e-06
-3.23754e-06
-2.28777e-06
-3.42139e-06
-2.75055e-06
-3.50877e-06
-3.19958e-06
-3.51411e-06
-3.62674e-06
-3.45171e-06
-4.02652e-06
-3.33509e-06
-4.39557e-06
-3.17654e-06
-4.73222e-06
-2.98683e-06
-5.03606e-06
-2.77514e-06
-5.30762e-06
-2.54901e-06
-5.54802e-06
-2.31447e-06
-5.75874e-06
-2.07609e-06
-5.94147e-06
-1.83719e-06
-6.0979e-06
-1.59998e-06
-6.22968e-06
-1.36572e-06
-6.33829e-06
-1.13488e-06
-6.42499e-06
-9.07287e-07
-6.4908e-06
-6.82265e-07
-6.53645e-06
-4.58739e-07
-6.56237e-06
-2.35359e-07
-6.56865e-06
-1.06084e-08
-6.55507e-06
2.17091e-07
-6.52102e-06
4.49273e-07
-6.46559e-06
6.87313e-07
-6.38749e-06
9.32304e-07
-6.28511e-06
1.18492e-06
-6.1565e-06
1.44526e-06
-5.99948e-06
1.71267e-06
-5.81167e-06
1.98556e-06
-5.59058e-06
2.26121e-06
-5.33386e-06
2.53551e-06
-5.03945e-06
2.80281e-06
-4.70592e-06
3.05568e-06
-4.33287e-06
3.28484e-06
-3.92139e-06
3.47908e-06
-3.47464e-06
3.62536e-06
-2.99843e-06
3.70911e-06
-2.50183e-06
3.71474e-06
-1.99766e-06
3.62637e-06
-1.50278e-06
3.42888e-06
-1.03808e-06
3.10915e-06
-6.28004e-07
2.65736e-06
-2.99587e-07
2.06828e-06
-8.10688e-08
1.34215e-06
4.85909e-07
-7.16298e-08
-4.03831e-07
-2.65129e-07
-1.10245e-06
-5.57593e-07
-1.68741e-06
-9.26101e-07
-2.15881e-06
-1.34891e-06
-2.52069e-06
-1.80632e-06
-2.78014e-06
-2.28116e-06
-2.94655e-06
-2.75913e-06
-3.0308e-06
-3.22874e-06
-3.0445e-06
-3.68118e-06
-2.99928e-06
-4.11e-06
-2.90627e-06
-4.51081e-06
-2.77573e-06
-4.88087e-06
-2.61676e-06
-5.21878e-06
-2.43723e-06
-5.52413e-06
-2.24367e-06
-5.79723e-06
-2.04137e-06
-6.03888e-06
-1.83444e-06
-6.25018e-06
-1.62589e-06
-6.43238e-06
-1.41778e-06
-6.58673e-06
-1.21137e-06
-6.71441e-06
-1.00719e-06
-6.81646e-06
-8.05242e-07
-6.89369e-06
-6.05032e-07
-6.94669e-06
-4.0574e-07
-6.97576e-06
-2.06293e-07
-6.98089e-06
-5.47139e-09
-6.96179e-06
1.97992e-07
-6.91784e-06
4.05317e-07
-6.84809e-06
6.17569e-07
-6.75134e-06
8.35545e-07
-6.62607e-06
1.05965e-06
-6.47059e-06
1.28977e-06
-6.28302e-06
1.52511e-06
-6.06147e-06
1.76401e-06
-5.80412e-06
2.00385e-06
-5.50942e-06
2.24081e-06
-5.17634e-06
2.46973e-06
-4.80467e-06
2.68402e-06
-4.39539e-06
2.87556e-06
-3.95104e-06
3.03473e-06
-3.47625e-06
3.15056e-06
-2.97812e-06
3.21099e-06
-2.4667e-06
3.20332e-06
-1.95526e-06
3.11493e-06
-1.4604e-06
2.93402e-06
-1.00189e-06
2.65064e-06
-6.0217e-07
2.25764e-06
-2.85494e-07
1.7516e-06
-7.67531e-08
1.13341e-06
4.09156e-07
-6.97414e-08
-3.3409e-07
-2.59005e-07
-9.13186e-07
-5.46638e-07
-1.39977e-06
-9.11469e-07
-1.79398e-06
-1.33325e-06
-2.0989e-06
-1.79338e-06
-2.32001e-06
-2.27534e-06
-2.46458e-06
-2.76502e-06
-2.54112e-06
-3.25076e-06
-2.55877e-06
-3.72324e-06
-2.5268e-06
-4.17534e-06
-2.45417e-06
-4.60186e-06
-2.34921e-06
-4.99922e-06
-2.2194e-06
-5.36517e-06
-2.07127e-06
-5.69853e-06
-1.91031e-06
-5.9989e-06
-1.741e-06
-6.26649e-06
-1.56685e-06
-6.50187e-06
-1.39051e-06
-6.70583e-06
-1.21382e-06
-6.87929e-06
-1.03791e-06
-7.02312e-06
-8.63359e-07
-7.13813e-06
-6.90233e-07
-7.22495e-06
-5.18216e-07
-7.284e-06
-3.46689e-07
-7.31547e-06
-1.74826e-07
-7.31926e-06
-1.67348e-09
-7.29503e-06
1.73757e-07
-7.24212e-06
3.52408e-07
-7.15963e-06
5.35078e-07
-7.04641e-06
7.22326e-07
-6.90112e-06
9.14364e-07
-6.72229e-06
1.11094e-06
-6.50839e-06
1.31121e-06
-6.258e-06
1.51362e-06
-5.96991e-06
1.71576e-06
-5.64333e-06
1.91424e-06
-5.27817e-06
2.10457e-06
-4.87526e-06
2.28111e-06
-4.43673e-06
2.43702e-06
-3.9663e-06
2.56431e-06
-3.46974e-06
2.654e-06
-2.95512e-06
2.69636e-06
-2.43314e-06
2.68134e-06
-1.91726e-06
2.59905e-06
-1.42373e-06
2.44049e-06
-9.71281e-07
2.19819e-06
-5.80675e-07
1.86704e-06
-2.73905e-07
1.44483e-06
-7.3236e-08
9.32741e-07
3.3592e-07
-6.83215e-08
-2.65768e-07
-2.54378e-07
-7.27129e-07
-5.38317e-07
-1.11584e-06
-9.00275e-07
-1.43202e-06
-1.32116e-06
-1.67802e-06
-1.78322e-06
-1.85795e-06
-2.27051e-06
-1.97729e-06
-2.76912e-06
-2.04251e-06
-3.26728e-06
-2.0606e-06
-3.75538e-06
-2.0387e-06
-4.22579e-06
-1.98376e-06
-4.67268e-06
-1.90232e-06
-5.09182e-06
-1.80027e-06
-5.48029e-06
-1.6828e-06
-5.83628e-06
-1.55432e-06
-6.15881e-06
-1.41847e-06
-6.44755e-06
-1.27812e-06
-6.70262e-06
-1.13544e-06
-6.92444e-06
-9.9199e-07
-7.1136e-06
-8.48756e-07
-7.2707e-06
-7.06254e-07
-7.39633e-06
-5.64602e-07
-7.49095e-06
-4.236e-07
-7.55483e-06
-2.82804e-07
-7.58806e-06
-1.41596e-07
-7.59048e-06
7.38859e-10
-7.56166e-06
1.44943e-07
-7.50097e-06
2.91719e-07
-7.40754e-06
4.41642e-07
-7.2803e-06
5.95085e-07
-7.11806e-06
7.52131e-07
-6.9196e-06
9.12474e-07
-6.68372e-06
1.07533e-06
-6.40941e-06
1.23932e-06
-6.09603e-06
1.40238e-06
-5.74346e-06
1.56167e-06
-5.35238e-06
1.71349e-06
-4.9245e-06
1.85323e-06
-4.46289e-06
1.9754e-06
-3.97221e-06
2.07364e-06
-3.45908e-06
2.14087e-06
-2.93227e-06
2.16956e-06
-2.40291e-06
2.15198e-06
-1.88453e-06
2.08067e-06
-1.39295e-06
1.94891e-06
-9.46045e-07
1.75128e-06
-5.63174e-07
1.48417e-06
-2.64557e-07
1.14622e-06
-7.04193e-08
7.38603e-07
2.65501e-07
-6.72788e-08
-1.98489e-07
-2.50969e-07
-5.43439e-07
-5.32159e-07
-8.34646e-07
-8.91949e-07
-1.07223e-06
-1.3121e-06
-1.25787e-06
-1.77553e-06
-1.39452e-06
-2.26672e-06
-1.4861e-06
-2.77196e-06
-1.53727e-06
-3.27946e-06
-1.5531e-06
-3.77937e-06
-1.53879e-06
-4.26371e-06
-1.49942e-06
-4.72622e-06
-1.43981e-06
-5.16215e-06
-1.36434e-06
-5.56808e-06
-1.27687e-06
-5.94168e-06
-1.18072e-06
-6.28152e-06
-1.07863e-06
-6.58685e-06
-9.72789e-07
-6.85741e-06
-8.64878e-07
-7.09331e-06
-7.56093e-07
-7.29485e-06
-6.47222e-07
-7.46241e-06
-5.38688e-07
-7.5964e-06
-4.30616e-07
-7.69711e-06
-3.22889e-07
-7.76471e-06
-2.15203e-07
-7.79918e-06
-1.07125e-07
-7.8003e-06
1.85631e-09
-7.76762e-06
1.12266e-07
-7.7005e-06
2.24598e-07
-7.5981e-06
3.39245e-07
-7.45946e-06
4.56441e-07
-7.28352e-06
5.76197e-07
-7.06927e-06
6.98221e-07
-6.8158e-06
8.21856e-07
-6.52248e-06
9.45994e-07
-6.18911e-06
1.06901e-06
-5.81615e-06
1.18871e-06
-5.40491e-06
1.30224e-06
-4.95779e-06
1.40611e-06
-4.47857e-06
1.49618e-06
-3.97265e-06
1.56772e-06
-3.44728e-06
1.6155e-06
-2.91171e-06
1.63399e-06
-2.37735e-06
1.61761e-06
-1.85769e-06
1.56101e-06
-1.36821e-06
1.45943e-06
-9.26017e-07
1.30909e-06
-5.49419e-07
1.10757e-06
-2.57262e-07
8.54058e-07
-6.82337e-08
5.49574e-07
1.97267e-07
-6.65478e-08
-1.31941e-07
-2.48573e-07
-3.61414e-07
-5.27819e-07
-5.554e-07
-8.86058e-07
-7.13991e-07
-1.30565e-06
-8.38278e-07
-1.77002e-06
-9.30156e-07
-2.26394e-06
-9.92172e-07
-2.77388e-06
-1.02734e-06
-3.28803e-06
-1.03895e-06
-3.79642e-06
-1.0304e-06
-4.29082e-06
-1.00503e-06
-4.76464e-06
-9.65987e-07
-5.21279e-06
-9.16183e-07
-5.63148e-06
-8.58181e-07
-6.018e-06
-7.94189e-07
-6.37059e-06
-7.26046e-07
-6.68815e-06
-6.55227e-07
-6.97016e-06
-5.82865e-07
-7.21647e-06
-5.09782e-07
-7.42717e-06
-4.36518e-07
-7.60248e-06
-3.63378e-07
-7.74264e-06
-2.9046e-07
-7.84783e-06
-2.17702e-07
-7.91812e-06
-1.44916e-07
-7.95341e-06
-7.1827e-08
-7.95345e-06
1.89024e-09
-7.91775e-06
7.65727e-08
-7.84569e-06
1.52532e-07
-7.73645e-06
2.3001e-07
-7.58915e-06
3.09144e-07
-7.40287e-06
3.89911e-07
-7.17674e-06
4.7209e-07
-6.91009e-06
5.55209e-07
-6.60259e-06
6.38495e-07
-6.25441e-06
7.20829e-07
-5.86641e-06
8.00708e-07
-5.44038e-06
8.76211e-07
-4.97926e-06
9.44989e-07
-4.48735e-06
1.00428e-06
-3.97057e-06
1.05094e-06
-3.43659e-06
1.08152e-06
-2.89502e-06
1.09242e-06
-2.35741e-06
1.08e-06
-1.8372e-06
1.0408e-06
-1.34957e-06
9.71799e-07
-9.11083e-07
8.70605e-07
-5.39235e-07
7.35722e-07
-2.5189e-07
5.66713e-07
-6.66308e-08
3.64315e-07
1.30636e-07
-6.60837e-08
-6.58573e-08
-2.4705e-07
-1.80448e-07
-5.25053e-07
-2.77396e-07
-8.82295e-07
-3.5675e-07
-1.30153e-06
-4.19046e-07
-1.76647e-06
-4.65215e-07
-2.26213e-06
-4.96506e-07
-2.77507e-06
-5.14401e-07
-3.2935e-06
-5.20521e-07
-3.80736e-06
-5.16541e-07
-4.30828e-06
-5.04112e-07
-4.78946e-06
-4.84804e-07
-5.24559e-06
-4.60057e-07
-5.67261e-06
-4.31151e-07
-6.06761e-06
-3.99191e-07
-6.42856e-06
-3.65097e-07
-6.75418e-06
-3.29611e-07
-7.04374e-06
-2.93307e-07
-7.29692e-06
-2.56598e-07
-7.51368e-06
-2.19763e-07
-7.6941e-06
-1.82959e-07
-7.83832e-06
-1.46239e-07
-7.94644e-06
-1.09579e-07
-8.01847e-06
-7.2887e-08
-8.05426e-06
-3.60314e-08
-8.05352e-06
1.14648e-09
-8.01576e-06
3.88106e-08
-7.94034e-06
7.71113e-08
-7.82649e-06
1.16165e-07
-7.67338e-06
1.56031e-07
-7.48016e-06
1.96692e-07
-7.2461e-06
2.38028e-07
-6.97068e-06
2.79793e-07
-6.65378e-06