/*--------------------------------*- C++ -*----------------------------------*\
  =========                 |
  \\      /  F ield         | OpenFOAM: The Open Source CFD Toolbox
   \\    /   O peration     | Website:  https://openfoam.org
    \\  /    A nd           | Version:  7
     \\/     M anipulation  |
\*---------------------------------------------------------------------------*/
FoamFile
{
    version     2.0;
    format      ascii;
    class       surfaceScalarField;
    location    "0.0484";
    object      phi;
}
// * * * * * * * * * * * * * * * * * * * * * * * * * * * * * * * * * * * * * //

dimensions      [0 3 -1 0 0 0 0];

internalField   nonuniform List<scalar> 
4900
(
5.4547e-06
-5.45472e-06
9.95328e-06
-4.49858e-06
1.26941e-05
-2.74079e-06
1.44123e-05
-1.71818e-06
1.55283e-05
-1.11604e-06
1.62812e-05
-7.52892e-07
1.68119e-05
-5.30735e-07
1.72021e-05
-3.9014e-07
1.74989e-05
-2.96792e-07
1.77306e-05
-2.31747e-07
1.79151e-05
-1.84476e-07
1.8064e-05
-1.48914e-07
1.81854e-05
-1.2141e-07
1.82851e-05
-9.9662e-08
1.83672e-05
-8.21558e-08
1.84351e-05
-6.78509e-08
1.84911e-05
-5.60067e-08
1.85372e-05
-4.60781e-08
1.85748e-05
-3.76519e-08
1.86052e-05
-3.0406e-08
1.86293e-05
-2.40827e-08
1.86478e-05
-1.84697e-08
1.86611e-05
-1.33873e-08
1.86698e-05
-8.67857e-09
1.8674e-05
-4.20255e-09
1.86739e-05
1.77636e-10
1.86693e-05
4.58083e-09
1.86601e-05
9.14697e-09
1.86461e-05
1.40091e-08
1.86268e-05
1.93182e-08
1.86016e-05
2.52458e-08
1.85696e-05
3.19943e-08
1.85297e-05
3.98106e-08
1.84807e-05
4.90051e-08
1.84208e-05
5.99792e-08
1.83475e-05
7.32665e-08
1.82579e-05
8.95968e-08
1.81479e-05
1.09999e-07
1.80119e-05
1.35972e-07
1.78421e-05
1.6979e-07
1.76271e-05
2.15056e-07
1.73493e-05
2.7776e-07
1.6981e-05
3.68366e-07
1.6475e-05
5.05956e-07
1.57491e-05
7.25901e-07
1.46574e-05
1.09175e-06
1.29451e-05
1.71224e-06
1.0162e-05
2.78311e-06
5.55728e-06
4.60473e-06
5.55728e-06
-1.19218e-07
-5.3355e-06
1.83191e-06
-6.44971e-06
4.41335e-06
-5.32223e-06
6.72926e-06
-4.03408e-06
8.60928e-06
-2.99606e-06
1.00919e-05
-2.23548e-06
1.12567e-05
-1.69559e-06
1.2178e-05
-1.31139e-06
1.29141e-05
-1.03292e-06
1.35087e-05
-8.26325e-07
1.39936e-05
-6.69414e-07
1.43923e-05
-5.47619e-07
1.47222e-05
-4.51252e-07
1.49962e-05
-3.73734e-07
1.52246e-05
-3.10478e-07
1.54149e-05
-2.58202e-07
1.55734e-05
-2.14498e-07
1.57049e-05
-1.7755e-07
1.58132e-05
-1.45954e-07
1.59014e-05
-1.186e-07
1.59719e-05
-9.45869e-08
1.60266e-05
-7.3163e-08
1.60669e-05
-5.36859e-08
1.60938e-05
-3.55897e-08
1.61079e-05
-1.83596e-08
1.61096e-05
-1.51187e-09
1.60988e-05
1.54265e-08
1.6075e-05
3.29334e-08
1.60375e-05
5.15128e-08
1.59851e-05
7.17151e-08
1.59162e-05
9.41644e-08
1.58286e-05
1.19592e-07
1.57195e-05
1.4888e-07
1.55854e-05
1.83128e-07
1.54216e-05
2.23734e-07
1.52224e-05
2.72532e-07
1.498e-05
3.31974e-07
1.46846e-05
4.05428e-07
1.43229e-05
4.97636e-07
1.38772e-05
6.1544e-07
1.33233e-05
7.68974e-07
1.26275e-05
9.73595e-07
1.17429e-05
1.25297e-06
1.06051e-05
1.6437e-06
9.13016e-06
2.20088e-06
7.22346e-06
2.99845e-06
4.83104e-06
4.10466e-06
2.12084e-06
5.4933e-06
1.07101e-08
6.71486e-06
5.56799e-06
-1.08241e-06
-4.2531e-06
-7.54123e-07
-6.778e-06
5.89268e-07
-6.66562e-06
2.30122e-06
-5.74603e-06
4.012e-06
-4.70684e-06
5.56299e-06
-3.78647e-06
6.90697e-06
-3.03957e-06
8.04753e-06
-2.45195e-06
9.00725e-06
-1.99264e-06
9.8129e-06
-1.63197e-06
1.04895e-05
-1.34604e-06
1.10587e-05
-1.11675e-06
1.15381e-05
-9.30701e-07
1.19424e-05
-7.78052e-07
1.22834e-05
-6.51484e-07
1.25707e-05
-5.45504e-07
1.28121e-05
-4.55911e-07
1.3014e-05
-3.79441e-07
1.31816e-05
-3.13503e-07
1.3319e-05
-2.56e-07
1.34296e-05
-2.05196e-07
1.35161e-05
-1.59621e-07
1.35804e-05
-1.18001e-07
1.3624e-05
-7.91979e-08
1.36478e-05
-4.21677e-08
1.36522e-05
-5.9224e-09
1.36371e-05
3.05102e-08
1.36019e-05
6.81114e-08
1.35455e-05
1.07916e-07
1.34662e-05
1.5105e-07
1.33616e-05
1.98778e-07
1.32286e-05
2.5257e-07
1.30633e-05
3.14176e-07
1.28607e-05
3.85741e-07
1.26145e-05
4.69947e-07
1.23168e-05
5.70225e-07
1.19577e-05
6.91046e-07
1.15248e-05
8.38339e-07
1.10024e-05
1.02009e-06
1.03706e-05
1.24718e-06
9.60503e-06
1.53456e-06
8.67587e-06
1.90275e-06
7.54957e-06
2.37927e-06
6.19422e-06
2.99905e-06
4.59508e-06
3.80002e-06
2.78981e-06
4.80372e-06
9.37085e-07
5.95739e-06
-5.71032e-07
7.00142e-06
-1.03824e-06
7.18207e-06
4.52975e-06
-9.13073e-07
-3.34003e-06
-1.34174e-06
-6.34933e-06
-9.37358e-07
-7.07001e-06
2.02126e-08
-6.7036e-06
1.23715e-06
-5.92378e-06
2.51401e-06
-5.06333e-06
3.73804e-06
-4.2636e-06
4.85654e-06
-3.57046e-06
5.85172e-06
-2.98782e-06
6.72374e-06
-2.504e-06
7.48106e-06
-2.10336e-06
8.13519e-06
-1.77088e-06
8.69815e-06
-1.49366e-06
9.18126e-06
-1.26116e-06
9.59466e-06
-1.06489e-06
9.94724e-06
-8.98077e-07
1.02466e-05
-7.5527e-07
1.04992e-05
-6.32056e-07
1.07105e-05
-5.2481e-07
1.0885e-05
-4.30514e-07
1.10264e-05
-3.46605e-07
1.11377e-05
-2.70868e-07
1.1221e-05
-2.01344e-07
1.12781e-05
-1.36262e-07
1.13099e-05
-7.39748e-08
1.13169e-05
-1.29086e-08
1.12989e-05
4.84889e-08
1.12552e-05
1.11792e-07
1.11845e-05
1.78656e-07
1.10847e-05
2.50868e-07
1.0953e-05
3.30424e-07
1.0786e-05
4.19604e-07
1.05791e-05
5.2109e-07
1.03267e-05
6.38091e-07
1.00221e-05
7.74534e-07
9.65707e-06
9.3529e-07
9.22163e-06
1.12649e-06
8.70407e-06
1.3559e-06
8.09072e-06
1.63344e-06
7.36625e-06
1.97165e-06
6.51459e-06
2.38622e-06
5.52141e-06
2.89593e-06
4.37945e-06
3.52123e-06
3.09921e-06
4.27928e-06
1.72824e-06
5.17099e-06
3.81345e-07
6.15062e-06
-7.25785e-07
7.06452e-06
-1.26627e-06
7.5419e-06
-9.16006e-07
6.83181e-06
3.61375e-06
-6.64873e-07
-2.67515e-06
-1.29765e-06
-5.71655e-06
-1.41907e-06
-6.94859e-06
-1.04429e-06
-7.07838e-06
-3.27778e-07
-6.64029e-06
5.72933e-07
-5.96404e-06
1.53963e-06
-5.2303e-06
2.49646e-06
-4.52729e-06
3.40026e-06
-3.89162e-06
4.22968e-06
-3.33341e-06
4.97674e-06
-2.85041e-06
5.64113e-06
-2.43527e-06
6.22665e-06
-2.07918e-06
6.739e-06
-1.77351e-06
7.1846e-06
-1.51049e-06
7.56983e-06
-1.2833e-06
7.9007e-06
-1.08614e-06
8.18265e-06
-9.14014e-07
8.4205e-06
-7.62659e-07
8.61837e-06
-6.28385e-07
8.77973e-06
-5.07966e-07
8.9074e-06
-3.98538e-07
9.00357e-06
-2.97516e-07
9.06983e-06
-2.02515e-07
9.10714e-06
-1.11292e-07
9.11591e-06
-2.16774e-08
9.09593e-06
6.84762e-08
9.04636e-06
1.61355e-07
8.96577e-06
2.59247e-07
8.85203e-06
3.6461e-07
8.7023e-06
4.80149e-07
8.51299e-06
6.08916e-07
8.27966e-06
7.54419e-07
7.99699e-06
9.20763e-07
7.65871e-06
1.11281e-06
7.25761e-06
1.33639e-06
6.7856e-06
1.5985e-06
6.23396e-06
1.90754e-06
5.59396e-06
2.27344e-06
4.85799e-06
2.70761e-06
4.02184e-06
3.22237e-06
3.08859e-06
3.82919e-06
2.07519e-06
4.53463e-06
1.02262e-06
5.33185e-06
9.56419e-09
6.18404e-06
-8.34875e-07
6.99506e-06
-1.33079e-06
7.56044e-06
-1.29361e-06
7.50471e-06
-6.85132e-07
6.22333e-06
2.92861e-06
-4.70935e-07
-2.20422e-06
-1.10028e-06
-5.0872e-06
-1.46934e-06
-6.57953e-06
-1.47148e-06
-7.07624e-06
-1.15245e-06
-6.95933e-06
-6.07177e-07
-6.50931e-06
7.0703e-08
-5.90818e-06
8.07379e-07
-5.26397e-06
1.55127e-06
-4.6355e-06
2.26935e-06
-4.0515e-06
2.94229e-06
-3.52335e-06
3.56009e-06
-3.05306e-06
4.11879e-06
-2.63788e-06
4.6182e-06
-2.27293e-06
5.0603e-06
-1.95259e-06
5.44822e-06
-1.67122e-06
5.7856e-06
-1.42352e-06
6.07616e-06
-1.20458e-06
6.32347e-06
-1.00997e-06
6.53077e-06
-8.35683e-07
6.70089e-06
-6.78084e-07
6.83619e-06
-5.3384e-07
6.93854e-06
-3.99866e-07
7.00929e-06
-2.73261e-07
7.04925e-06
-1.51249e-07
7.05869e-06
-3.11191e-08
7.03733e-06
8.98294e-08
6.98434e-06
2.1435e-07
6.89827e-06
3.45312e-07
6.77711e-06
4.85771e-07
6.61821e-06
6.3905e-07
6.41831e-06
8.0882e-07
6.17352e-06
9.99206e-07
5.87939e-06
1.21489e-06
5.53098e-06
1.46123e-06
5.12304e-06
1.74433e-06
4.65039e-06
2.07115e-06
4.10854e-06
2.44939e-06
3.49473e-06
2.88725e-06
2.80964e-06
3.3927e-06
2.06008e-06
3.97194e-06
1.26293e-06
4.62634e-06
4.50634e-07
5.34692e-06
-3.22292e-07
6.10477e-06
-9.73734e-07
6.83549e-06
-1.39487e-06
7.41619e-06
-1.47065e-06
7.63622e-06
-1.13671e-06
7.17077e-06
-4.96713e-07
5.58334e-06
2.4319e-06
-3.40021e-07
-1.8642e-06
-9.02575e-07
-4.52465e-06
-1.3654e-06
-6.11671e-06
-1.58702e-06
-6.85461e-06
-1.54897e-06
-6.99738e-06
-1.29323e-06
-6.76505e-06
-8.81072e-07
-6.32034e-06
-3.71517e-07
-5.77352e-06
1.87221e-07
-5.19424e-06
7.59353e-07
-4.62363e-06
1.32012e-06
-4.08412e-06
1.85347e-06
-3.58642e-06
2.34978e-06
-3.13419e-06
2.80392e-06
-2.72707e-06
3.21382e-06
-2.36249e-06
3.57936e-06
-2.03677e-06
3.90163e-06
-1.74578e-06
4.18235e-06
-1.4853e-06
4.42358e-06
-1.25119e-06
4.62737e-06
-1.03948e-06
4.79568e-06
-8.4639e-07
4.93019e-06
-6.68348e-07
5.03226e-06
-5.0194e-07
5.10288e-06
-3.43882e-07
5.14261e-06
-1.9098e-07
5.15157e-06
-4.00781e-08
5.12941e-06
1.11988e-07
5.07532e-06
2.68445e-07
4.98799e-06
4.32642e-07
4.86565e-06
6.08109e-07
4.70608e-06
7.98622e-07
4.50663e-06
1.00827e-06
4.26433e-06
1.2415e-06
3.976e-06
1.50322e-06
3.63848e-06
1.79875e-06
3.24896e-06
2.13385e-06
2.80558e-06
2.51453e-06
2.3082e-06
2.94676e-06
1.75971e-06
3.43574e-06
1.16773e-06
3.98468e-06
5.47115e-07
4.59256e-06
-7.70782e-08
5.25053e-06
-6.66224e-07
5.93607e-06
-1.1657e-06
6.60425e-06
-1.50584e-06
7.17563e-06
-1.61119e-06
7.52154e-06
-1.42555e-06
7.45059e-06
-9.60356e-07
6.70558e-06
-3.66739e-07
4.98972e-06
2.06516e-06
-2.55134e-07
-1.60906e-06
-7.41711e-07
-4.03807e-06
-1.22287e-06
-5.63555e-06
-1.56185e-06
-6.51563e-06
-1.70956e-06
-6.84967e-06
-1.67186e-06
-6.80276e-06
-1.48132e-06
-6.51088e-06
-1.17876e-06
-6.07608e-06
-8.03093e-07
-5.5699e-06
-3.86996e-07
-5.03973e-06
4.42002e-08
-4.51532e-06
4.71967e-07
-4.01418e-06
8.83432e-07
-3.54565e-06
1.27013e-06
-3.11377e-06
1.62688e-06
-2.71923e-06
1.95083e-06
-2.36072e-06
2.24075e-06
-2.03571e-06
2.49649e-06
-1.74104e-06
2.71853e-06
-1.47322e-06
2.90768e-06
-1.22863e-06
3.06491e-06
-1.00362e-06
3.19114e-06
-7.94579e-07
3.28715e-06
-5.97947e-07
3.35349e-06
-4.10216e-07
3.39041e-06
-2.27908e-07
3.39789e-06
-4.75494e-08
3.37551e-06
1.34368e-07
3.32253e-06
3.21419e-07
3.23788e-06
5.17296e-07
3.12015e-06
7.25841e-07
2.96767e-06
9.51094e-07
2.77862e-06
1.19732e-06
2.55112e-06
1.46901e-06
2.28345e-06
1.77089e-06
1.97438e-06
2.10782e-06
1.62359e-06
2.48463e-06
1.23233e-06
2.90579e-06
8.04285e-07
3.37481e-06
3.46739e-07
3.89329e-06
-1.27892e-07
4.45931e-06
-6.00318e-07
5.06498e-06
-1.04261e-06
5.69282e-06
-1.41705e-06
6.31051e-06
-1.67689e-06
6.86409e-06
-1.77108e-06
7.26982e-06
-1.65624e-06
7.40669e-06
-1.31902e-06
7.11337e-06
-8.09957e-07
6.19651e-06
-2.81323e-07
4.46109e-06
1.78384e-06
-1.99568e-07
-1.40949e-06
-6.18933e-07
-3.61871e-06
-1.08565e-06
-5.16883e-06
-1.48135e-06
-6.11992e-06
-1.74652e-06
-6.5845e-06
-1.86561e-06
-6.68367e-06
-1.84985e-06
-6.52664e-06
-1.72338e-06
-6.20255e-06
-1.51417e-06
-5.77911e-06
-1.24878e-06
-5.30512e-06
-9.49987e-07
-4.81411e-06
-6.36053e-07
-4.32812e-06
-3.20919e-07
-3.86079e-06
-1.47808e-08
-3.41991e-06
2.75204e-07
-3.00922e-06
5.44233e-07
-2.62974e-06
7.89266e-07
-2.28074e-06
1.00853e-06
-1.96031e-06
1.20113e-06
-1.66582e-06
1.36673e-06
-1.39424e-06
1.50534e-06
-1.14223e-06
1.61712e-06
-9.06356e-07
1.70225e-06
-6.83075e-07
1.76084e-06
-4.68807e-07
1.79286e-06
-2.59935e-07
1.79811e-06
-5.27994e-08
1.77617e-06
1.56311e-07
1.72641e-06
3.71181e-07
1.64802e-06
5.95689e-07
1.54004e-06
8.33821e-07
1.40145e-06
1.08968e-06
1.23129e-06
1.36747e-06
1.02884e-06
1.67147e-06
7.93838e-07
2.00589e-06
5.26877e-07
2.37479e-06
2.2984e-07
2.78167e-06
-9.34648e-08
3.2291e-06
-4.36521e-07
3.71787e-06
-7.89153e-07
4.24592e-06
-1.13648e-06
4.80663e-06
-1.45793e-06
5.38643e-06
-1.72668e-06
5.96158e-06
-1.91024e-06
6.49407e-06
-1.97301e-06
6.92686e-06
-1.88258e-06
7.17939e-06
-1.62099e-06
7.1451e-06
-1.20185e-06
6.69424e-06
-6.91257e-07
5.68591e-06
-2.24643e-07
3.99447e-06
1.5592e-06
-1.62227e-07
-1.24727e-06
-5.27004e-07
-3.25393e-06
-9.67591e-07
-4.72824e-06
-1.3861e-06
-5.70142e-06
-1.72297e-06
-6.24763e-06
-1.95172e-06
-6.45492e-06
-2.06925e-06
-6.40912e-06
-2.0865e-06
-6.1853e-06
-2.02117e-06
-5.84444e-06
-1.89284e-06
-5.43344e-06
-1.72013e-06
-4.98682e-06
-1.51929e-06
-4.52896e-06
-1.30368e-06
-4.07639e-06
-1.0839e-06
-3.63969e-06
-8.67996e-07
-3.22512e-06
-6.61926e-07
-2.83582e-06
-4.69957e-07
-2.47271e-06
-2.95055e-07
-2.13521e-06
-1.39212e-07
-1.82167e-06
-3.72501e-09
-1.52972e-06
1.10587e-07
-1.25654e-06
2.03202e-07
-9.98971e-07
2.73766e-07
-7.53639e-07
3.21991e-07
-5.17032e-07
3.47583e-07
-2.85527e-07
3.50203e-07
-5.54192e-08
3.29439e-07
1.77074e-07
2.84817e-07
4.15804e-07
2.15824e-07
6.64682e-07
1.21975e-07
9.27671e-07
2.89903e-09
1.20876e-06
-1.41505e-07
1.51188e-06
-3.10897e-07
1.84086e-06
-5.04216e-07
2.19921e-06
-7.19342e-07
2.58991e-06
-9.52666e-07
3.01499e-06
-1.19855e-06
3.47498e-06
-1.44873e-06
3.96805e-06
-1.69166e-06
4.48885e-06
-1.91195e-06
5.02692e-06
-2.09011e-06
5.56459e-06
-2.20291e-06
6.07438e-06
-2.22495e-06
6.5161e-06
-2.13211e-06
6.83402e-06
-1.90773e-06
6.955e-06
-1.55181e-06
6.78918e-06
-1.09283e-06
6.23526e-06
-5.99404e-07
5.19249e-06
-1.85821e-07
3.58089e-06
1.37337e-06
-1.36386e-07
-1.11088e-06
-4.58286e-07
-2.93203e-06
-8.70745e-07
-4.31579e-06
-1.29408e-06
-5.27808e-06
-1.67331e-06
-5.8684e-06
-1.97744e-06
-6.15078e-06
-2.19463e-06
-6.19193e-06
-2.32619e-06
-6.05373e-06
-2.38131e-06
-5.78932e-06
-2.37293e-06
-5.44183e-06
-2.315e-06
-5.04476e-06
-2.22082e-06
-4.62314e-06
-2.10221e-06
-4.195e-06
-1.96911e-06
-3.77279e-06
-1.82963e-06
-3.3646e-06
-1.69015e-06
-2.97529e-06
-1.5556e-06
-2.60726e-06
-1.4297e-06
-2.26111e-06
-1.31521e-06
-1.93616e-06
-1.21414e-06
-1.63079e-06
-1.12796e-06
-1.34272e-06
-1.05774e-06
-1.06919e-06
-1.00427e-06
-8.07103e-07
-9.68185e-07
-5.53122e-07
-9.49972e-07
-3.0374e-07
-9.50069e-07
-5.53227e-08
-9.68848e-07
1.95853e-07
-1.00662e-06
4.53572e-07
-1.06358e-06
7.21643e-07
-1.13977e-06
1.00386e-06
-1.23494e-06
1.30393e-06
-1.34845e-06
1.62539e-06
-1.47903e-06
1.97143e-06
-1.62456e-06
2.34474e-06
-1.78177e-06
2.74713e-06
-1.94589e-06
3.17911e-06
-2.11021e-06
3.6393e-06
-2.26573e-06
4.12357e-06
-2.40079e-06
4.62392e-06
-2.50099e-06
5.12712e-06
-2.54938e-06
5.61298e-06
-2.5275e-06
6.0525e-06
-2.41737e-06
6.40597e-06
-2.20505e-06
6.62171e-06
-1.88591e-06
6.63587e-06
-1.47157e-06
6.37484e-06
-9.97363e-07
5.76105e-06
-5.28108e-07
4.72324e-06
-1.58216e-07
3.211e-06
1.21516e-06
-1.1801e-07
-9.9287e-07
-4.06641e-07
-2.6434e-06
-7.93029e-07
-3.9294e-06
-1.21233e-06
-4.85878e-06
-1.6156e-06
-5.46513e-06
-1.97105e-06
-5.79533e-06
-2.26194e-06
-5.90104e-06
-2.48303e-06
-5.83264e-06
-2.63692e-06
-5.63544e-06
-2.73082e-06
-5.34793e-06
-2.77421e-06
-5.00136e-06
-2.77717e-06
-4.62018e-06
-2.74938e-06
-4.2228e-06
-2.69953e-06
-3.82264e-06
-2.63513e-06
-3.429e-06
-2.56245e-06
-3.04798e-06
-2.48658e-06
-2.68313e-06
-2.41158e-06
-2.33611e-06
-2.34065e-06
-2.00708e-06
-2.27628e-06
-1.69516e-06
-2.22038e-06
-1.39863e-06
-2.17441e-06
-1.11516e-06
-2.1395e-06
-8.42013e-07
-2.11651e-06
-5.76116e-07
-2.10608e-06
-3.14167e-07
-2.1087e-06
-5.27068e-08
-2.12467e-06
2.11823e-07
-2.15412e-06
4.83027e-07
-2.19698e-06
7.64498e-07
-2.25286e-06
1.05974e-06
-2.321e-06
1.37207e-06
-2.40013e-06
1.70451e-06
-2.48826e-06
2.05957e-06
-2.58253e-06
2.43902e-06
-2.67893e-06
2.84353e-06
-2.77205e-06
3.27223e-06
-2.85483e-06
3.72207e-06
-2.91835e-06
4.18709e-06
-2.95181e-06
4.65738e-06
-2.94269e-06
5.118e-06
-2.87738e-06
5.54767e-06
-2.74244e-06
5.91755e-06
-2.52671e-06
6.19025e-06
-2.22453e-06
6.31952e-06
-1.83986e-06
6.2512e-06
-1.39113e-06
5.92611e-06
-9.15696e-07
5.28561e-06
-4.72078e-07
4.27962e-06
-1.37857e-07
2.87678e-06
1.0773e-06
-1.04642e-07
-8.88229e-07
-3.67533e-07
-2.38051e-06
-7.313e-07
-3.56563e-06
-1.14272e-06
-4.44736e-06
-1.55889e-06
-5.04897e-06
-1.94908e-06
-5.40514e-06
-2.2942e-06
-5.55592e-06
-2.5848e-06
-5.54204e-06
-2.81861e-06
-5.40163e-06
-2.99822e-06
-5.16831e-06
-3.12916e-06
-4.87043e-06
-3.21836e-06
-4.53098e-06
-3.27319e-06
-4.16797e-06
-3.30076e-06
-3.79506e-06
-3.30759e-06
-3.42217e-06
-3.29939e-06
-3.05617e-06
-3.28107e-06
-2.70146e-06
-3.25668e-06
-2.36049e-06
-3.22959e-06
-2.03418e-06
-3.2025e-06
-1.72225e-06
-3.17758e-06
-1.42355e-06
-3.15652e-06
-1.13621e-06
-3.14067e-06
-8.57863e-07
-3.13104e-06
-5.85755e-07
-3.12834e-06
-3.16865e-07
-3.13306e-06
-4.79866e-08
-3.14542e-06
2.2419e-07
-3.1654e-06
5.03003e-07
-3.19264e-06
7.91737e-07
-3.22643e-06
1.09353e-06
-3.26559e-06
1.41124e-06
-3.30839e-06
1.74731e-06
-3.35236e-06
2.10354e-06
-3.39418e-06
2.48083e-06
-3.42948e-06
2.87883e-06
-3.45271e-06
3.29546e-06
-3.45702e-06
3.72638e-06
-3.43422e-06
4.16429e-06
-3.37494e-06
4.59811e-06
-3.26908e-06
5.01213e-06
-3.10656e-06
5.38515e-06
-2.87869e-06
5.68968e-06
-2.58013e-06
5.8917e-06
-2.21152e-06
5.95091e-06
-1.78258e-06
5.82225e-06
-1.3153e-06
5.45884e-06
-8.46332e-07
4.81664e-06
-4.27366e-07
3.86065e-06
-1.22352e-07
2.57176e-06
9.54949e-07
-9.47368e-08
-7.93492e-07
-3.37693e-07
-2.13755e-06
-6.82493e-07
-3.22083e-06
-1.08486e-06
-4.04499e-06
-1.50728e-06
-4.62655e-06
-1.92096e-06
-4.99147e-06
-2.30596e-06
-5.17091e-06
-2.65027e-06
-5.19773e-06
-2.94821e-06
-5.10369e-06
-3.19879e-06
-4.91773e-06
-3.40419e-06
-4.66502e-06
-3.56853e-06
-4.36663e-06
-3.69691e-06
-4.0396e-06
-3.79475e-06
-3.69723e-06
-3.86734e-06
-3.34958e-06
-3.91962e-06
-3.00389e-06
-3.95599e-06
-2.66509e-06
-3.98029e-06
-2.3362e-06
-3.99577e-06
-2.01869e-06
-4.00517e-06
-1.71285e-06
-4.01074e-06
-1.41798e-06
-4.01428e-06
-1.13267e-06
-4.01722e-06
-8.54928e-07
-4.02062e-06
-5.82358e-07
-4.02523e-06
-3.12255e-07
-4.03149e-06
-4.17207e-08
-4.03955e-06
2.32244e-07
-4.0492e-06
5.12651e-07
-4.05988e-06
8.0242e-07
-4.07062e-06
1.10427e-06
-4.07995e-06
1.42057e-06
-4.08583e-06
1.75319e-06
-4.08553e-06
2.10324e-06
-4.07556e-06
2.47086e-06
-4.05152e-06
2.8548e-06
-4.00812e-06
3.25206e-06
-3.93912e-06
3.65738e-06
-3.83747e-06
4.06264e-06
-3.69561e-06
4.45624e-06
-3.50598e-06
4.8225e-06
-3.26192e-06
5.14109e-06
-2.95894e-06
5.3867e-06
-2.59636e-06
5.52912e-06
-2.17942e-06
5.53397e-06
-1.72148e-06
5.36431e-06
-1.24595e-06
4.98331e-06
-7.8743e-07
4.35812e-06
-3.91151e-07
3.46437e-06
-1.10227e-07
2.29084e-06
8.44722e-07
-8.7295e-08
-7.06197e-07
-3.14772e-07
-1.91008e-06
-6.43976e-07
-2.89163e-06
-1.03746e-06
-3.6515e-06
-1.46231e-06
-4.20171e-06
-1.89185e-06
-4.56192e-06
-2.30625e-06
-4.75652e-06
-2.69201e-06
-4.81197e-06
-3.04115e-06
-4.75455e-06
-3.34997e-06
-4.60891e-06
-3.61797e-06
-4.39702e-06
-3.84683e-06
-4.13778e-06
-4.03957e-06
-3.84686e-06
-4.19994e-06
-3.53685e-06
-4.33197e-06
-3.21755e-06
-4.43964e-06
-2.89622e-06
-4.5267e-06
-2.57803e-06
-4.59656e-06
-2.26633e-06
-4.65224e-06
-1.96302e-06
-4.69632e-06
-1.66877e-06
-4.73099e-06
-1.38331e-06
-4.75803e-06
-1.10562e-06
-4.77887e-06
-8.34096e-07
-4.79455e-06
-5.66677e-07
-4.80579e-06
-3.0101e-07
-4.81298e-06
-3.4535e-08
-4.81614e-06
2.35404e-07
-4.81494e-06
5.11455e-07
-4.80866e-06
7.96144e-07
-4.79615e-06
1.09175e-06
-4.77575e-06
1.40017e-06
-4.74528e-06
1.72271e-06
-4.70193e-06
2.0599e-06
-4.64228e-06
2.4112e-06
-4.56219e-06
2.7747e-06
-4.45688e-06
3.14675e-06
-4.32102e-06
3.52152e-06
-4.14892e-06
3.89054e-06
-3.93495e-06
4.24227e-06
-3.67406e-06
4.56162e-06
-3.36268e-06
4.82971e-06
-2.99981e-06
5.02383e-06
-2.5884e-06
5.11771e-06
-2.13691e-06
5.08248e-06
-1.66078e-06
4.88818e-06
-1.18359e-06
4.50611e-06
-7.37305e-07
3.91184e-06
-3.61438e-07
3.08851e-06
-1.00545e-07
2.02994e-06
7.44177e-07
-8.16451e-08
-6.24552e-07
-2.97073e-07
-1.69465e-06
-6.13608e-07
-2.57509e-06
-9.99016e-07
-3.26609e-06
-1.42415e-06
-3.77657e-06
-1.86445e-06
-4.12162e-06
-2.30058e-06
-4.3204e-06
-2.71834e-06
-4.3942e-06
-3.10821e-06
-4.36469e-06
-3.46451e-06
-4.25261e-06
-3.78465e-06
-4.07689e-06
-4.06824e-06
-3.85418e-06
-4.3165e-06
-3.59859e-06
-4.53163e-06
-3.32173e-06
-4.71639e-06
-3.03279e-06
-4.87379e-06
-2.73883e-06
-5.00683e-06
-2.44499e-06
-5.11839e-06
-2.15477e-06
-5.2111e-06
-1.8703e-06
-5.28731e-06
-1.59256e-06
-5.34902e-06
-1.3216e-06
-5.39792e-06
-1.05673e-06
-5.43532e-06
-7.96689e-07
-5.46223e-06
-5.39772e-07
-5.47927e-06
-2.83964e-07
-5.48676e-06
-2.70546e-08
-5.4846e-06
2.33252e-07
-5.47238e-06
4.99228e-07
-5.44924e-06
7.73004e-07
-5.41392e-06
1.05644e-06
-5.3647e-06
1.35096e-06
-5.29939e-06
1.6574e-06
-5.21527e-06
1.97578e-06
-5.10913e-06
2.30507e-06
-4.9773e-06
2.64288e-06
-4.81573e-06
2.98518e-06
-4.62012e-06
3.32591e-06
-4.38626e-06
3.65668e-06
-4.11039e-06
3.96639e-06
-3.78978e-06
4.24101e-06
-3.42354e-06
4.46346e-06
-3.01349e-06
4.61378e-06
-2.56531e-06
4.66953e-06
-2.08961e-06
4.60678e-06
-1.60289e-06
4.40147e-06
-1.12811e-06
4.03133e-06
-6.94563e-07
3.47829e-06
-3.36822e-07
2.73077e-06
-9.26925e-08
1.78581e-06
6.51485e-07
-7.73242e-08
-5.47227e-07
-2.83358e-07
-1.48861e-06
-5.89688e-07
-2.26876e-06
-9.6806e-07
-2.88772e-06
-1.39239e-06
-3.35225e-06
-1.84e-06
-3.67401e-06
-2.29226e-06
-3.86813e-06
-2.73475e-06
-3.95172e-06
-3.15693e-06
-3.94251e-06
-3.55173e-06
-3.8578e-06
-3.91491e-06
-3.71371e-06
-4.24445e-06
-3.52464e-06
-4.53999e-06
-3.30305e-06
-4.80236e-06
-3.05935e-06
-5.03315e-06
-2.802e-06
-5.23439e-06
-2.53759e-06
-5.40833e-06
-2.27105e-06
-5.55726e-06
-2.00584e-06
-5.68337e-06
-1.74419e-06
-5.78868e-06
-1.48726e-06
-5.87494e-06
-1.23533e-06
-5.94366e-06
-9.88011e-07
-5.99602e-06
-7.44323e-07
-6.03291e-06
-5.02885e-07
-6.05486e-06
-2.62015e-07
-6.06207e-06
-1.98473e-08
-6.05437e-06
2.25559e-07
-6.03125e-06
4.76107e-07
-5.99179e-06
7.33545e-07
-5.93469e-06
9.99335e-07
-5.85824e-06
1.27451e-06
-5.76034e-06
1.55949e-06
-5.63847e-06
1.85392e-06
-5.48981e-06
2.1564e-06
-5.31125e-06
2.46431e-06
-5.09953e-06
2.77346e-06
-4.85152e-06
3.07789e-06
-4.5644e-06
3.36957e-06
-4.23619e-06
3.63818e-06
-3.86622e-06
3.87104e-06
-3.4558e-06
4.05305e-06
-3.00902e-06
4.16699e-06
-2.53352e-06
4.19403e-06
-2.04128e-06
4.11454e-06
-1.54919e-06
3.90937e-06
-1.07922e-06
3.56137e-06
-6.58111e-07
3.05718e-06
-3.16305e-07
2.38896e-06
-8.62588e-08
1.55577e-06
5.65226e-07
-7.40057e-08
-4.73222e-07
-2.72716e-07
-1.2899e-06
-5.70887e-07
-1.97059e-06
-9.43307e-07
-2.5153e-06
-1.36634e-06
-2.92922e-06
-1.81893e-06
-3.22142e-06
-2.28323e-06
-3.40383e-06
-2.7448e-06
-3.49014e-06
-3.19255e-06
-3.49476e-06
-3.61837e-06
-3.43198e-06
-4.01679e-06
-3.31529e-06
-4.38448e-06
-3.15695e-06
-4.71978e-06
-2.96774e-06
-5.02233e-06
-2.75681e-06
-5.29265e-06
-2.53168e-06
-5.53188e-06
-2.29835e-06
-5.74155e-06
-2.06138e-06
-5.92332e-06
-1.82406e-06
-6.07893e-06
-1.58858e-06
-6.21002e-06
-1.35617e-06
-6.31807e-06
-1.12728e-06
-6.40436e-06
-9.0172e-07
-6.46991e-06
-6.78773e-07
-6.51545e-06
-4.57344e-07
-6.5414e-06
-2.3606e-07
-6.54787e-06
-1.33805e-08
-6.53461e-06
2.12296e-07
-6.50103e-06
4.42525e-07
-6.44619e-06
6.78704e-07
-6.3688e-06
9.21945e-07
-6.26723e-06
1.17294e-06
-6.13954e-06
1.4318e-06
-5.98353e-06
1.6979e-06
-5.79679e-06
1.96966e-06
-5.57684e-06
2.24437e-06
-5.32131e-06
2.51793e-06
-5.02811e-06
2.7847e-06
-4.69582e-06
3.03727e-06
-4.324e-06
3.26637e-06
-3.91375e-06
3.46078e-06
-3.46819e-06
3.60749e-06
-2.99313e-06
3.69193e-06
-2.49761e-06
3.69852e-06
-1.99444e-06
3.61138e-06
-1.50047e-06
3.4154e-06
-1.03655e-06
3.09745e-06
-6.27113e-07
2.64774e-06
-2.99177e-07
2.06102e-06
-8.09616e-08
1.33755e-06
4.84264e-07
-7.14557e-08
-4.01766e-07
-2.6447e-07
-1.09689e-06
-5.56172e-07
-1.67889e-06
-9.23671e-07
-2.1478e-06
-1.34526e-06
-2.50763e-06
-1.80126e-06
-2.76542e-06
-2.27455e-06
-2.93054e-06
-2.75085e-06
-3.01384e-06
-3.2187e-06
-3.02691e-06
-3.66933e-06
-2.98136e-06
-4.09632e-06
-2.8883e-06
-4.4953e-06
-2.75797e-06
-4.86358e-06
-2.59947e-06
-5.19976e-06
-2.42062e-06
-5.50347e-06
-2.22797e-06
-5.77504e-06
-2.02678e-06
-6.0153e-06
-1.82113e-06
-6.22535e-06
-1.61401e-06
-6.40646e-06
-1.40747e-06
-6.5599e-06
-1.20273e-06
-6.68686e-06
-1.00033e-06
-6.78837e-06
-8.00211e-07
-6.86526e-06
-6.01879e-07
-6.91812e-06
-4.04486e-07
-6.94724e-06
-2.06938e-07
-6.95263e-06
-7.99348e-09
-6.93397e-06
1.93636e-07
-6.89063e-06
3.9919e-07
-6.82168e-06
6.09753e-07
-6.72588e-06
8.26141e-07
-6.60172e-06
1.04878e-06
-6.44747e-06
1.27756e-06
-6.26127e-06
1.5117e-06
-6.04118e-06
1.74957e-06
-5.78537e-06
1.98856e-06
-5.49227e-06
2.22484e-06
-5.16085e-06
2.45328e-06
-4.79087e-06
2.66729e-06
-4.38327e-06
2.85877e-06
-3.94059e-06
3.01811e-06
-3.46743e-06
3.13433e-06
-2.97087e-06
3.19537e-06
-2.46093e-06
3.18858e-06
-1.95086e-06
3.1013e-06
-1.45723e-06
2.92176e-06
-9.99785e-07
2.64001e-06
-6.00945e-07
2.2489e-06
-2.84928e-07
1.74501e-06
-7.66046e-08
1.12923e-06
4.0766e-07
-6.95045e-08
-3.32261e-07
-2.5812e-07
-9.08275e-07
-5.44748e-07
-1.39226e-06
-9.08264e-07
-1.78428e-06
-1.32847e-06
-2.08742e-06
-1.7868e-06
-2.30709e-06
-2.2668e-06
-2.45054e-06
-2.75438e-06
-2.52626e-06
-3.23792e-06
-2.54337e-06
-3.70815e-06
-2.51112e-06
-4.15799e-06
-2.43846e-06
-4.58227e-06
-2.3337e-06
-4.97743e-06
-2.2043e-06
-5.34127e-06
-2.05679e-06
-5.67262e-06
-1.89662e-06
-5.97113e-06
-1.72827e-06
-6.23701e-06
-1.55525e-06
-6.47087e-06
-1.38016e-06
-6.67351e-06
-1.20483e-06
-6.84585e-06
-1.03039e-06
-6.98881e-06
-8.57377e-07
-7.10316e-06
-6.85852e-07
-7.18957e-06
-5.15473e-07
-7.24845e-06
-3.45604e-07
-7.27999e-06
-1.75397e-07
-7.2841e-06
-3.88315e-09
-7.26041e-06
1.69947e-07
-7.20827e-06
3.47051e-07
-7.12677e-06
5.28246e-07
-7.01473e-06
7.14105e-07
-6.87081e-06
9.04855e-07
-6.69351e-06
1.10026e-06
-6.4813e-06
1.29949e-06
-6.23272e-06
1.501e-06
-5.94654e-06
1.70238e-06
-5.62197e-06
1.90026e-06
-5.25887e-06
2.09018e-06
-4.85806e-06
2.26648e-06
-4.42162e-06
2.42233e-06
-3.95328e-06
2.54977e-06
-3.45875e-06
2.6398e-06
-2.94608e-06
2.68271e-06
-2.42594e-06
2.66844e-06
-1.91177e-06
2.58713e-06
-1.41977e-06
2.42976e-06
-9.68655e-07
2.18889e-06
-5.79143e-07
1.85939e-06
-2.73197e-07
1.43906e-06
-7.30498e-08
9.29082e-07
3.3461e-07
-6.80286e-08
-2.64233e-07
-2.53292e-07
-7.23012e-07
-5.36008e-07
-1.10954e-06
-8.96381e-07
-1.42391e-06
-1.31537e-06
-1.66843e-06
-1.7753e-06
-1.84716e-06
-2.26025e-06
-1.96559e-06
-2.75638e-06
-2.03013e-06
-3.25197e-06
-2.04778e-06
-3.73743e-06
-2.02566e-06
-4.20518e-06
-1.9707e-06
-4.64945e-06
-1.88943e-06
-5.06604e-06
-1.78772e-06
-5.45206e-06
-1.67077e-06
-5.80572e-06
-1.54296e-06
-6.12608e-06
-1.40791e-06
-6.41284e-06
-1.26848e-06
-6.66615e-06
-1.12685e-06
-6.88645e-06
-9.84535e-07
-7.07432e-06
-8.42517e-07
-7.2304e-06
-7.01294e-07
-7.35528e-06
-5.60971e-07
-7.44943e-06
-4.21329e-07
-7.51312e-06
-2.81908e-07
-7.54644e-06
-1.42077e-07
-7.54922e-06
-1.10222e-09
-7.52105e-06
1.41773e-07
-7.46126e-06
2.87263e-07
-7.36897e-06
4.3596e-07
-7.24312e-06
5.88248e-07
-7.08249e-06
7.44223e-07
-6.88582e-06
9.03592e-07
-6.65191e-06
1.06558e-06
-6.37973e-06
1.22881e-06
-6.06859e-06
1.39125e-06
-5.71837e-06
1.55004e-06
-5.32971e-06
1.70151e-06
-4.90429e-06
1.84106e-06
-4.44514e-06
1.96318e-06
-3.95691e-06
2.06153e-06
-3.44616e-06
2.12905e-06
-2.92165e-06
2.15819e-06
-2.39446e-06
2.14125e-06
-1.87808e-06
2.07075e-06
-1.3883e-06
1.93999e-06
-9.42957e-07
1.74355e-06
-5.61372e-07
1.4778e-06
-2.63724e-07
1.14141e-06
-7.01999e-08
7.35558e-07
2.6441e-07
-6.69385e-08
-1.97294e-07
-2.49712e-07
-5.40238e-07
-5.29498e-07
-8.29758e-07
-8.87472e-07
-1.06594e-06
-1.30546e-06
-1.25043e-06
-1.76647e-06
-1.38616e-06
-2.25502e-06
-1.47704e-06
-2.75745e-06
-1.5277e-06
-3.26205e-06
-1.54319e-06
-3.759e-06
-1.52871e-06
-4.24037e-06
-1.48933e-06
-4.69994e-06
-1.42986e-06
-5.13301e-06
-1.35465e-06
-5.5362e-06
-1.26758e-06
-5.90721e-06
-1.17195e-06
-6.24464e-06
-1.07048e-06
-6.54776e-06
-9.65359e-07
-6.81636e-06
-8.58251e-07
-7.05055e-06
-7.50344e-07
-7.25066e-06
-6.4241e-07
-7.41709e-06
-5.34864e-07
-7.55024e-06
-4.27818e-07
-7.65043e-06
-3.2114e-07
-7.71782e-06
-2.14516e-07
-7.7524e-06
-1.07499e-07
-7.75393e-06
4.31634e-10
-7.72197e-06
1.09814e-07
-7.65587e-06
2.21154e-07
-7.55476e-06
3.34853e-07
-7.41767e-06
4.51158e-07
-7.24353e-06
5.70086e-07
-7.0313e-06
6.91357e-07
-6.78004e-06
8.1432e-07
-6.4891e-06
9.37877e-07
-6.15827e-06
1.06041e-06
-5.78795e-06
1.17972e-06
-5.37942e-06
1.29298e-06
-4.93506e-06
1.3967e-06
-4.45862e-06
1.48674e-06
-3.95545e-06
1.55836e-06
-3.43276e-06
1.60636e-06
-2.89977e-06
1.62521e-06
-2.36784e-06
1.60932e-06
-1.85043e-06
1.55334e-06
-1.36298e-06
1.45253e-06
-9.22544e-07
1.30311e-06
-5.47391e-07
1.10265e-06
-2.56324e-07
8.50348e-07
-6.79864e-08
5.47221e-07
1.96424e-07
-6.61706e-08
-1.31124e-07
-2.47184e-07
-3.59225e-07
-5.24882e-07
-5.5206e-07
-8.81126e-07
-7.09694e-07
-1.29836e-06
-8.33199e-07
-1.76007e-06
-9.24454e-07
-2.25111e-06
-9.85991e-07
-2.758e-06
-1.02081e-06
-3.26899e-06
-1.0322e-06
-3.77416e-06
-1.02354e-06
-4.26534e-06
-9.98156e-07
-4.73598e-06
-9.59211e-07
-5.18104e-06
-9.09593e-07
-5.59676e-06
-8.51863e-07
-5.98048e-06
-7.88223e-07
-6.33046e-06
-7.20504e-07
-6.64564e-06
-6.50174e-07
-6.92553e-06
-5.78359e-07
-7.17001e-06
-5.05872e-07
-7.37917e-06
-4.33247e-07
-7.55325e-06
-3.60779e-07
-7.69251e-06
-2.88558e-07
-7.79714e-06
-2.16514e-07
-7.8672e-06
-1.44451e-07
-7.90262e-06
-7.20843e-08
-7.90311e-06
9.18473e-10
-7.86819e-06
7.4902e-08
-7.79723e-06
1.50185e-07
-7.68939e-06
2.27019e-07
-7.54378e-06
3.05545e-07
-7.35944e-06
3.85749e-07
-7.1355e-06
4.67416e-07
-6.87126e-06
5.50077e-07
-6.56635e-06
6.32966e-07
-6.22091e-06
7.14971e-07
-5.83578e-06
7.9459e-07
-5.4127e-06
8.69907e-07
-4.95458e-06
9.3858e-07
-4.46568e-06
9.97845e-07
-3.95188e-06
1.04456e-06
-3.42082e-06
1.0753e-06
-2.88205e-06
1.08644e-06
-2.34708e-06
1.07435e-06
-1.82932e-06
1.03558e-06
-1.34389e-06
9.67104e-07
-9.07311e-07
8.66533e-07
-5.37032e-07
7.32372e-07
-2.50871e-07
5.64186e-07
-6.6362e-08
3.62712e-07
1.30062e-07
-6.56812e-08
-6.54425e-08
-2.45569e-07
-1.79337e-07
-5.21927e-07
-2.75701e-07
-8.77051e-07
-3.5457e-07
-1.29378e-06
-4.16471e-07
-1.75591e-06
-4.62325e-07
-2.24853e-06
-4.93374e-07
-2.75825e-06
-5.11094e-07
-3.27334e-06
-5.17101e-07
-3.78382e-06
-5.13065e-07
-4.28134e-06
-5.00634e-07
-4.75917e-06
-4.81374e-07
-5.21205e-06
-4.56722e-07
-5.63595e-06
-4.27954e-07
-6.02801e-06
-3.96172e-07
-6.38622e-06
-3.62293e-07
-6.70934e-06
-3.27055e-07
-6.99667e-06
-2.91027e-07
-7.24792e-06
-2.54621e-07
-7.46306e-06
-2.18109e-07
-7.64219e-06
-1.81645e-07
-7.78547e-06
-1.45278e-07
-7.89301e-06
-1.08979e-07
-7.96481e-06
-7.26528e-08
-8.00073e-06
-3.6163e-08
-8.00046e-06
6.53271e-10
-7.96352e-06
3.79636e-08
-7.88926e-06
7.59224e-08
-7.77689e-06
1.14649e-07
-7.62555e-06
1.54208e-07
-7.43439e-06
1.94584e-07
-7.20263e-06
2.35661e-07
-6.92975e-06
2.77194e-07
-6.61557e-06