/*--------------------------------*- C++ -*----------------------------------*\
  =========                 |
  \\      /  F ield         | OpenFOAM: The Open Source CFD Toolbox
   \\    /   O peration     | Website:  https://openfoam.org
    \\  /    A nd           | Version:  7
     \\/     M anipulation  |
\*---------------------------------------------------------------------------*/
FoamFile
{
    version     2.0;
    format      ascii;
    class       volVectorField;
    location    "0.0382";
    object      U;
}
// * * * * * * * * * * * * * * * * * * * * * * * * * * * * * * * * * * * * * //

dimensions      [0 1 -1 0 0 0 0];

internalField   nonuniform List<vector> 
2500
(
(0.290252 -0.152412 0)
(0.389536 -0.128235 0)
(0.565421 -0.0747322 0)
(0.683242 -0.0422289 0)
(0.752823 -0.0245248 0)
(0.797818 -0.0148817 0)
(0.828961 -0.00957226 0)
(0.851406 -0.00654742 0)
(0.868182 -0.00472229 0)
(0.881113 -0.00354684 0)
(0.891309 -0.00274276 0)
(0.899479 -0.00216452 0)
(0.906102 -0.00173218 0)
(0.911516 -0.00139921 0)
(0.915965 -0.00113692 0)
(0.919632 -0.000926576 0)
(0.922657 -0.000755331 0)
(0.925149 -0.000614016 0)
(0.92719 -0.000495839 0)
(0.92885 -0.000395607 0)
(0.930179 -0.000309227 0)
(0.931218 -0.000233382 0)
(0.931998 -0.000165293 0)
(0.932541 -0.000102561 0)
(0.932863 -4.30248e-05 0)
(0.93297 1.53155e-05 0)
(0.932866 7.41909e-05 0)
(0.932544 0.000135741 0)
(0.931994 0.000202003 0)
(0.931196 0.000275216 0)
(0.930123 0.000357963 0)
(0.92874 0.000453333 0)
(0.927 0.000565137 0)
(0.924841 0.000698237 0)
(0.922185 0.00085903 0)
(0.918931 0.0010562 0)
(0.914947 0.00130195 0)
(0.910058 0.00161404 0)
(0.904028 0.00201953 0)
(0.896532 0.00256188 0)
(0.887102 0.00331509 0)
(0.875043 0.00441347 0)
(0.859267 0.00611569 0)
(0.837972 0.00894249 0)
(0.808103 0.0139538 0)
(0.76439 0.0232416 0)
(0.695899 0.0407683 0)
(0.577942 0.0737459 0)
(0.398051 0.128745 0)
(0.29387 0.153787 0)
(0.00108607 -0.294892 0)
(0.0168564 -0.298614 0)
(0.152312 -0.213009 0)
(0.282821 -0.145302 0)
(0.387946 -0.0996008 0)
(0.471101 -0.0697597 0)
(0.536443 -0.0503954 0)
(0.587826 -0.0375859 0)
(0.628594 -0.0288193 0)
(0.66131 -0.0225938 0)
(0.68784 -0.0180188 0)
(0.709546 -0.0145557 0)
(0.727429 -0.0118689 0)
(0.74224 -0.00974145 0)
(0.754548 -0.00802848 0)
(0.764795 -0.00662935 0)
(0.773325 -0.00547197 0)
(0.780408 -0.00450308 0)
(0.786261 -0.00368218 0)
(0.791055 -0.00297764 0)
(0.794928 -0.00236408 0)
(0.797987 -0.00182057 0)
(0.800312 -0.00132936 0)
(0.801964 -0.000874925 0)
(0.802985 -0.00044324 0)
(0.803395 -2.11795e-05 0)
(0.8032 0.000403847 0)
(0.802389 0.000844902 0)
(0.80093 0.00131557 0)
(0.798775 0.0018307 0)
(0.795852 0.00240721 0)
(0.792067 0.00306504 0)
(0.787297 0.00382845 0)
(0.781382 0.00472789 0)
(0.77412 0.00580265 0)
(0.765251 0.00710483 0)
(0.754443 0.00870549 0)
(0.741262 0.0107043 0)
(0.725141 0.0132457 0)
(0.705321 0.0165457 0)
(0.680773 0.0209403 0)
(0.650078 0.0269711 0)
(0.611257 0.0355433 0)
(0.561538 0.0482089 0)
(0.497185 0.0676272 0)
(0.413736 0.098101 0)
(0.306286 0.145743 0)
(0.170506 0.217281 0)
(0.026899 0.30719 0)
(0.00518625 0.303011 0)
(-0.0329176 -0.250391 0)
(-0.0615928 -0.344035 0)
(-0.0115174 -0.310557 0)
(0.0707439 -0.251453 0)
(0.158775 -0.195879 0)
(0.241189 -0.151258 0)
(0.31363 -0.11751 0)
(0.375409 -0.0923686 0)
(0.427428 -0.0735418 0)
(0.471045 -0.0592511 0)
(0.507602 -0.0482232 0)
(0.53828 -0.0395692 0)
(0.564068 -0.0326709 0)
(0.585773 -0.0270939 0)
(0.604056 -0.0225281 0)
(0.619448 -0.0187474 0)
(0.632386 -0.0155834 0)
(0.643223 -0.0129078 0)
(0.652247 -0.0106207 0)
(0.659692 -0.0086422 0)
(0.665748 -0.0069073 0)
(0.670562 -0.00536143 0)
(0.674253 -0.00395769 0)
(0.676905 -0.00265463 0)
(0.678576 -0.00141446 0)
(0.679299 -0.000201561 0)
(0.67908 0.0010189 0)
(0.677902 0.0022821 0)
(0.67572 0.00362511 0)
(0.672463 0.00508836 0)
(0.668028 0.00671746 0)
(0.66228 0.00856568 0)
(0.655041 0.0106971 0)
(0.646088 0.0131908 0)
(0.635141 0.0161472 0)
(0.621845 0.0196967 0)
(0.605761 0.0240122 0)
(0.586332 0.0293289 0)
(0.562859 0.0359722 0)
(0.534464 0.0444026 0)
(0.500039 0.0552827 0)
(0.458222 0.0695766 0)
(0.407392 0.0886873 0)
(0.345793 0.114613 0)
(0.271989 0.150001 0)
(0.186109 0.197609 0)
(0.0921809 0.257981 0)
(0.00181248 0.32326 0)
(-0.0569396 0.361523 0)
(-0.0321702 0.263989 0)
(-0.0267701 -0.190621 0)
(-0.0654366 -0.332974 0)
(-0.0645997 -0.351404 0)
(-0.0276229 -0.31907 0)
(0.0293893 -0.271728 0)
(0.0933581 -0.225103 0)
(0.156593 -0.184678 0)
(0.215299 -0.151365 0)
(0.267965 -0.124436 0)
(0.314305 -0.102763 0)
(0.354622 -0.0852641 0)
(0.389466 -0.071042 0)
(0.419453 -0.0593884 0)
(0.445181 -0.0497576 0)
(0.467196 -0.0417311 0)
(0.485978 -0.034986 0)
(0.501942 -0.0292704 0)
(0.515443 -0.0243852 0)
(0.526781 -0.0201702 0)
(0.536205 -0.0164943 0)
(0.543921 -0.0132479 0)
(0.550095 -0.0103373 0)
(0.554859 -0.00768085 0)
(0.558308 -0.00520516 0)
(0.560508 -0.00284262 0)
(0.561496 -0.000528962 0)
(0.561279 0.00179891 0)
(0.559833 0.00420498 0)
(0.557105 0.00675642 0)
(0.553009 0.00952613 0)
(0.547426 0.0125957 0)
(0.540195 0.0160592 0)
(0.531116 0.0200282 0)
(0.519935 0.024638 0)
(0.506344 0.0300563 0)
(0.489964 0.0364953 0)
(0.470342 0.0442275 0)
(0.446935 0.0536085 0)
(0.419103 0.0651064 0)
(0.386111 0.0793414 0)
(0.347152 0.0971326 0)
(0.30142 0.119541 0)
(0.248284 0.147878 0)
(0.187654 0.183577 0)
(0.120686 0.22771 0)
(0.051054 0.279589 0)
(-0.013201 0.33349 0)
(-0.0578698 0.372105 0)
(-0.064694 0.355878 0)
(-0.027288 0.204798 0)
(-0.0178496 -0.149167 0)
(-0.0531352 -0.30286 0)
(-0.0737291 -0.3547 0)
(-0.0668185 -0.349946 0)
(-0.0378147 -0.319152 0)
(0.00407204 -0.279689 0)
(0.0516367 -0.240145 0)
(0.100124 -0.204143 0)
(0.146698 -0.172797 0)
(0.189865 -0.146078 0)
(0.228979 -0.123512 0)
(0.263894 -0.104502 0)
(0.294736 -0.0884697 0)
(0.321769 -0.0749074 0)
(0.345313 -0.0633847 0)
(0.365698 -0.0535448 0)
(0.383243 -0.0450927 0)
(0.398239 -0.0377836 0)
(0.410947 -0.0314131 0)
(0.421593 -0.0258076 0)
(0.430369 -0.0208184 0)
(0.437434 -0.0163152 0)
(0.442913 -0.0121819 0)
(0.446903 -0.00831244 0)
(0.449466 -0.00460792 0)
(0.450636 -0.000973336 0)
(0.450419 0.00268507 0)
(0.448786 0.00646258 0)
(0.445681 0.010459 0)
(0.441012 0.0147817 0)
(0.434654 0.01955 0)
(0.426443 0.0248992 0)
(0.416178 0.0309867 0)
(0.403611 0.0379992 0)
(0.38845 0.0461618 0)
(0.370354 0.0557499 0)
(0.348935 0.0671031 0)
(0.323764 0.0806421 0)
(0.29439 0.0968865 0)
(0.260382 0.116469 0)
(0.221405 0.140131 0)
(0.177366 0.168681 0)
(0.128668 0.202843 0)
(0.0766124 0.242891 0)
(0.023993 0.287847 0)
(-0.0240967 0.333891 0)
(-0.0596335 0.371473 0)
(-0.0720596 0.380999 0)
(-0.054362 0.328068 0)
(-0.0186482 0.162452 0)
(-0.011432 -0.12089 0)
(-0.0403126 -0.269805 0)
(-0.0679974 -0.339836 0)
(-0.0780865 -0.356832 0)
(-0.0694604 -0.343357 0)
(-0.0469076 -0.314919 0)
(-0.015606 -0.28091 0)
(0.0201839 -0.246483 0)
(0.0573553 -0.214171 0)
(0.0938523 -0.185012 0)
(0.128428 -0.159255 0)
(0.1604 -0.136762 0)
(0.18946 -0.117231 0)
(0.215534 -0.100307 0)
(0.238686 -0.0856376 0)
(0.259059 -0.0728981 0)
(0.276835 -0.0617972 0)
(0.292204 -0.0520782 0)
(0.305356 -0.0435152 0)
(0.316465 -0.0359092 0)
(0.325686 -0.029083 0)
(0.333152 -0.0228774 0)
(0.33897 -0.0171466 0)
(0.343221 -0.0117554 0)
(0.34596 -0.0065754 0)
(0.347213 -0.0014821 0)
(0.346981 0.00364815 0)
(0.345235 0.00894116 0)
(0.341915 0.0145283 0)
(0.336934 0.0205498 0)
(0.330174 0.0271594 0)
(0.321483 0.0345285 0)
(0.310679 0.0428522 0)
(0.297551 0.0523552 0)
(0.281858 0.0633 0)
(0.263338 0.0759942 0)
(0.241721 0.0907982 0)
(0.216751 0.10813 0)
(0.188227 0.128462 0)
(0.156066 0.152301 0)
(0.120412 0.180133 0)
(0.0817969 0.212295 0)
(0.0413764 0.248718 0)
(0.00124307 0.288449 0)
(-0.0352426 0.328809 0)
(-0.0632331 0.36405 0)
(-0.0766253 0.38339 0)
(-0.0695277 0.368996 0)
(-0.0423433 0.295143 0)
(-0.012189 0.132938 0)
(-0.00747989 -0.100859 0)
(-0.0305032 -0.239439 0)
(-0.0588321 -0.317607 0)
(-0.0773598 -0.349529 0)
(-0.0819892 -0.350763 0)
(-0.0742313 -0.333798 0)
(-0.057098 -0.307396 0)
(-0.0337422 -0.277179 0)
(-0.00688849 -0.246486 0)
(0.0213704 -0.217144 0)
(0.0495508 -0.190041 0)
(0.0766673 -0.165511 0)
(0.102109 -0.14358 0)
(0.125535 -0.124111 0)
(0.146784 -0.106891 0)
(0.165818 -0.0916772 0)
(0.182674 -0.0782237 0)
(0.197432 -0.0662935 0)
(0.210194 -0.0556645 0)
(0.221068 -0.0461302 0)
(0.230158 -0.0374994 0)
(0.23756 -0.029594 0)
(0.243351 -0.022247 0)
(0.247592 -0.0152996 0)
(0.250322 -0.00859886 0)
(0.251558 -0.00199451 0)
(0.251295 0.0046634 0)
(0.249502 0.0115277 0)
(0.246124 0.0187572 0)
(0.241084 0.0265201 0)
(0.234277 0.0349976 0)
(0.225581 0.0443881 0)
(0.214848 0.0549111 0)
(0.201921 0.0668119 0)
(0.186633 0.0803646 0)
(0.168827 0.0958746 0)
(0.148373 0.113676 0)
(0.125205 0.134122 0)
(0.0993682 0.157559 0)
(0.0710965 0.184277 0)
(0.0409135 0.214408 0)
(0.00977231 0.247755 0)
(-0.0207773 0.28349 0)
(-0.0484238 0.319683 0)
(-0.0700212 0.352593 0)
(-0.0817755 0.375736 0)
(-0.0798967 0.378864 0)
(-0.0622072 0.347426 0)
(-0.0328056 0.263591 0)
(-0.00813482 0.111563 0)
(-0.00514578 -0.0861553 0)
(-0.0236153 -0.213029 0)
(-0.0501232 -0.293231 0)
(-0.0721953 -0.334363 0)
(-0.084846 -0.346793 0)
(-0.0875996 -0.340028 0)
(-0.0817466 -0.321565 0)
(-0.0692712 -0.296796 0)
(-0.0522412 -0.269341 0)
(-0.0324715 -0.241479 0)
(-0.0114083 -0.214562 0)
(0.00986868 -0.189321 0)
(0.0305949 -0.166093 0)
(0.0502571 -0.144974 0)
(0.0685316 -0.125913 0)
(0.0852325 -0.10878 0)
(0.10027 -0.0934039 0)
(0.11362 -0.0795915 0)
(0.125298 -0.0671454 0)
(0.135342 -0.0558693 0)
(0.143802 -0.0455715 0)
(0.150729 -0.0360669 0)
(0.156168 -0.0271759 0)
(0.160155 -0.0187241 0)
(0.16271 -0.01054 0)
(0.163839 -0.0024538 0)
(0.163531 0.0057055 0)
(0.161757 0.0141121 0)
(0.15847 0.022946 0)
(0.153604 0.0323958 0)
(0.147081 0.0426614 0)
(0.138809 0.0539563 0)
(0.128691 0.0665098 0)
(0.11663 0.0805679 0)
(0.102544 0.0963917 0)
(0.0863851 0.114253 0)
(0.0681628 0.134421 0)
(0.0479834 0.157138 0)
(0.0261005 0.18258 0)
(0.0029822 0.210777 0)
(-0.0206062 0.241497 0)
(-0.0435086 0.274055 0)
(-0.0640951 0.307032 0)
(-0.08023 0.337873 0)
(-0.0893837 0.362394 0)
(-0.0890145 0.374241 0)
(-0.0773074 0.364546 0)
(-0.0544841 0.322171 0)
(-0.0259675 0.23527 0)
(-0.00571169 0.0955209 0)
(-0.00374967 -0.074902 0)
(-0.0188556 -0.190328 0)
(-0.0428892 -0.26909 0)
(-0.0659513 -0.315217 0)
(-0.0831743 -0.335525 0)
(-0.0930602 -0.337035 0)
(-0.0957274 -0.325847 0)
(-0.0921825 -0.306772 0)
(-0.0838062 -0.283342 0)
(-0.0720017 -0.258011 0)
(-0.058015 -0.232399 0)
(-0.0428696 -0.207522 0)
(-0.0273606 -0.18397 0)
(-0.0120783 -0.162046 0)
(0.00255636 -0.141863 0)
(0.0162566 -0.123411 0)
(0.0288371 -0.106606 0)
(0.0401865 -0.0913161 0)
(0.0502456 -0.0773818 0)
(0.0589898 -0.0646309 0)
(0.0664161 -0.0528835 0)
(0.0725323 -0.0419573 0)
(0.0773497 -0.0316699 0)
(0.0808781 -0.0218386 0)
(0.0831207 -0.0122813 0)
(0.084072 -0.0028148 0)
(0.0837162 0.00674607 0)
(0.0820264 0.01659 0)
(0.0789649 0.0269107 0)
(0.0744854 0.0379087 0)
(0.0685351 0.0497924 0)
(0.0610605 0.0627783 0)
(0.0520138 0.0770909 0)
(0.0413642 0.0929591 0)
(0.0291117 0.11061 0)
(0.0153079 0.130259 0)
(8.27622e-05 0.152083 0)
(-0.0163205 0.176193 0)
(-0.0335012 0.202576 0)
(-0.0508504 0.23101 0)
(-0.0674971 0.260942 0)
(-0.0822637 0.29131 0)
(-0.0936555 0.32031 0)
(-0.0999238 0.345105 0)
(-0.0992733 0.361523 0)
(-0.0902894 0.36383 0)
(-0.0725837 0.344774 0)
(-0.0477019 0.296158 0)
(-0.0211548 0.210298 0)
(-0.00424566 0.0829829 0)
(-0.00288359 -0.0659212 0)
(-0.0155349 -0.1707 0)
(-0.0371701 -0.246131 0)
(-0.0599957 -0.294325 0)
(-0.0796545 -0.319761 0)
(-0.0942302 -0.327551 0)
(-0.103128 -0.322524 0)
(-0.106632 -0.308782 0)
(-0.105526 -0.289567 0)
(-0.100784 -0.267301 0)
(-0.0933824 -0.243713 0)
(-0.0841993 -0.219986 0)
(-0.0739734 -0.19689 0)
(-0.0632974 -0.174892 0)
(-0.0526287 -0.154247 0)
(-0.042309 -0.135059 0)
(-0.0325855 -0.117331 0)
(-0.0236314 -0.100997 0)
(-0.0155641 -0.0859456 0)
(-0.00846018 -0.0720367 0)
(-0.00236786 -0.059111 0)
(0.00268272 -0.046998 0)
(0.00667253 -0.0355196 0)
(0.00958787 -0.0244931 0)
(0.0114154 -0.0137323 0)
(0.0121398 -0.00304794 0)
(0.0117422 0.0077523 0)
(0.0101996 0.0188643 0)
(0.00748593 0.0304878 0)
(0.00357388 0.0428263 0)
(-0.00156105 0.056087 0)
(-0.00793482 0.0704784 0)
(-0.0155466 0.0862072 0)
(-0.0243677 0.103472 0)
(-0.0343264 0.122451 0)
(-0.0452884 0.143286 0)
(-0.0570334 0.166056 0)
(-0.0692253 0.190734 0)
(-0.0813806 0.217128 0)
(-0.092836 0.244799 0)
(-0.102725 0.272949 0)
(-0.109973 0.300267 0)
(-0.11334 0.324764 0)
(-0.111537 0.343579 0)
(-0.103456 0.352837 0)
(-0.0885657 0.347626 0)
(-0.0673953 0.322227 0)
(-0.0420949 0.270742 0)
(-0.0177228 0.188259 0)
(-0.00332176 0.0727905 0)
(-0.00232247 -0.0584855 0)
(-0.0131754 -0.153508 0)
(-0.0327288 -0.224615 0)
(-0.0547965 -0.272896 0)
(-0.075623 -0.301321 0)
(-0.0932085 -0.313601 0)
(-0.106571 -0.313498 0)
(-0.115504 -0.304421 0)
(-0.120323 -0.289226 0)
(-0.121619 -0.27018 0)
(-0.120088 -0.249002 0)
(-0.116424 -0.226943 0)
(-0.111257 -0.204879 0)
(-0.105132 -0.183394 0)
(-0.0984939 -0.162852 0)
(-0.091701 -0.143454 0)
(-0.08503 -0.125283 0)
(-0.0786913 -0.108336 0)
(-0.0728416 -0.092551 0)
(-0.0675957 -0.0778248 0)
(-0.0630364 -0.0640241 0)
(-0.0592243 -0.050996 0)
(-0.0562033 -0.0385734 0)
(-0.0540069 -0.0265799 0)
(-0.0526618 -0.0148318 0)
(-0.0521909 -0.00314031 0)
(-0.0526143 0.00868736 0)
(-0.0539497 0.0208472 0)
(-0.0562114 0.0335374 0)
(-0.0594074 0.0469567 0)
(-0.0635353 0.0613022 0)
(-0.0685767 0.0767654 0)
(-0.0744881 0.0935257 0)
(-0.0811907 0.111742 0)
(-0.0885565 0.131535 0)
(-0.0963917 0.152971 0)
(-0.104417 0.176028 0)
(-0.112249 0.200553 0)
(-0.119377 0.226204 0)
(-0.125154 0.252378 0)
(-0.128792 0.278111 0)
(-0.129394 0.301967 0)
(-0.12602 0.321925 0)
(-0.117822 0.335276 0)
(-0.104266 0.338589 0)
(-0.0854493 0.327794 0)
(-0.0624321 0.298484 0)
(-0.0375424 0.246474 0)
(-0.0152136 0.168655 0)
(-0.00270918 0.064229 0)
(-0.00194332 -0.0521349 0)
(-0.0114643 -0.138215 0)
(-0.0292934 -0.204504 0)
(-0.0504382 -0.251552 0)
(-0.0717064 -0.281356 0)
(-0.0911812 -0.296621 0)
(-0.107701 -0.300262 0)
(-0.120752 -0.295063 0)
(-0.130306 -0.283479 0)
(-0.136638 -0.267557 0)
(-0.14019 -0.248925 0)
(-0.141464 -0.228829 0)
(-0.140961 -0.20819 0)
(-0.139142 -0.18766 0)
(-0.136413 -0.16768 0)
(-0.133116 -0.148524 0)
(-0.129531 -0.130341 0)
(-0.125883 -0.113185 0)
(-0.12235 -0.0970403 0)
(-0.119071 -0.0818406 0)
(-0.116152 -0.0674811 0)
(-0.113676 -0.0538299 0)
(-0.111705 -0.0407358 0)
(-0.110287 -0.0280334 0)
(-0.109458 -0.0155472 0)
(-0.109247 -0.0030944 0)
(-0.109673 0.00951217 0)
(-0.110747 0.0224624 0)
(-0.112472 0.0359464 0)
(-0.114838 0.0501514 0)
(-0.117819 0.0652577 0)
(-0.121368 0.0814329 0)
(-0.125407 0.0988236 0)
(-0.129818 0.117543 0)
(-0.134437 0.137656 0)
(-0.139031 0.159154 0)
(-0.143296 0.181922 0)
(-0.146836 0.205705 0)
(-0.14916 0.230048 0)
(-0.149685 0.254234 0)
(-0.14775 0.277214 0)
(-0.142661 0.297525 0)
(-0.133776 0.313226 0)
(-0.120631 0.321858 0)
(-0.103132 0.320477 0)
(-0.081792 0.305792 0)
(-0.0579376 0.274455 0)
(-0.0338466 0.22352 0)
(-0.0133265 0.15104 0)
(-0.00228195 0.0568491 0)
(-0.00167761 -0.046568 0)
(-0.0101994 -0.124397 0)
(-0.0266299 -0.185646 0)
(-0.0468562 -0.230582 0)
(-0.0681674 -0.260574 0)
(-0.0887983 -0.277611 0)
(-0.107534 -0.283947 0)
(-0.123679 -0.281838 0)
(-0.136967 -0.27336 0)
(-0.14743 -0.260313 0)
(-0.155293 -0.24419 0)
(-0.160878 -0.226183 0)
(-0.164555 -0.207208 0)
(-0.166689 -0.187947 0)
(-0.167623 -0.168882 0)
(-0.167665 -0.150339 0)
(-0.167076 -0.132517 0)
(-0.166081 -0.115517 0)
(-0.164862 -0.0993627 0)
(-0.163568 -0.0840219 0)
(-0.16232 -0.0694182 0)
(-0.161213 -0.0554425 0)
(-0.16032 -0.041962 0)
(-0.159698 -0.0288259 0)
(-0.159391 -0.015871 0)
(-0.159429 -0.0029254 0)
(-0.159828 0.0101878 0)
(-0.160594 0.0236472 0)
(-0.161718 0.0376295 0)
(-0.163176 0.0523055 0)
(-0.164922 0.0678338 0)
(-0.166885 0.0843546 0)
(-0.168963 0.101979 0)
(-0.171015 0.120775 0)
(-0.172852 0.140752 0)
(-0.17423 0.161837 0)
(-0.17484 0.183841 0)
(-0.174309 0.206428 0)
(-0.172197 0.229067 0)
(-0.168013 0.250984 0)
(-0.161241 0.271106 0)
(-0.151395 0.288014 0)
(-0.138098 0.299917 0)
(-0.1212 0.304651 0)
(-0.100924 0.299749 0)
(-0.0780356 0.282588 0)
(-0.0539622 0.25065 0)
(-0.030824 0.201871 0)
(-0.0118688 0.135053 0)
(-0.00197033 0.0503573 0)
(-0.00148578 -0.0415802 0)
(-0.0092486 -0.111727 0)
(-0.0245545 -0.167861 0)
(-0.0439401 -0.210101 0)
(-0.065088 -0.239405 0)
(-0.0864024 -0.257252 0)
(-0.106683 -0.265393 0)
(-0.12514 -0.265645 0)
(-0.141349 -0.259742 0)
(-0.155161 -0.249244 0)
(-0.166623 -0.235488 0)
(-0.175907 -0.219575 0)
(-0.183252 -0.202386 0)
(-0.188928 -0.184597 0)
(-0.193207 -0.166708 0)
(-0.196346 -0.149074 0)
(-0.198581 -0.131926 0)
(-0.200117 -0.1154 0)
(-0.20113 -0.0995532 0)
(-0.20177 -0.0843822 0)
(-0.202159 -0.0698368 0)
(-0.202399 -0.0558305 0)
(-0.202569 -0.04225 0)
(-0.202729 -0.0289613 0)
(-0.202926 -0.0158164 0)
(-0.203189 -0.00265753 0)
(-0.203531 0.010678 0)
(-0.203952 0.0243537 0)
(-0.204434 0.0385294 0)
(-0.204938 0.0533558 0)
(-0.205405 0.0689678 0)
(-0.205749 0.0854759 0)
(-0.205853 0.102956 0)
(-0.205562 0.121436 0)
(-0.204681 0.140875 0)
(-0.20297 0.161147 0)
(-0.20014 0.182009 0)
(-0.195858 0.203071 0)
(-0.189755 0.223762 0)
(-0.181447 0.24329 0)
(-0.170567 0.26061 0)
(-0.156819 0.274397 0)
(-0.140053 0.283045 0)
(-0.120357 0.284692 0)
(-0.0981709 0.277304 0)
(-0.0744031 0.258814 0)
(-0.0504807 0.22734 0)
(-0.0283274 0.181444 0)
(-0.0107159 0.120408 0)
(-0.00173454 0.0445534 0)
(-0.00134402 -0.0370283 0)
(-0.00852382 -0.0999565 0)
(-0.022928 -0.150975 0)
(-0.0415763 -0.190128 0)
(-0.0624656 -0.218102 0)
(-0.0841623 -0.23601 0)
(-0.105516 -0.245216 0)
(-0.125695 -0.247183 0)
(-0.144174 -0.24335 0)
(-0.160677 -0.235048 0)
(-0.175113 -0.223452 0)
(-0.187523 -0.209561 0)
(-0.198034 -0.194193 0)
(-0.206824 -0.177997 0)
(-0.214093 -0.161467 0)
(-0.220044 -0.144967 0)
(-0.224873 -0.128749 0)
(-0.22876 -0.11297 0)
(-0.231868 -0.0977108 0)
(-0.234335 -0.0829932 0)
(-0.236281 -0.0687893 0)
(-0.237806 -0.0550336 0)
(-0.238989 -0.041632 0)
(-0.239891 -0.0284684 0)
(-0.240556 -0.0154116 0)
(-0.241012 -0.00232035 0)
(-0.241269 0.0109516 0)
(-0.241319 0.0245502 0)
(-0.241136 0.038616 0)
(-0.240673 0.0532782 0)
(-0.239861 0.0686467 0)
(-0.238605 0.084804 0)
(-0.23678 0.101793 0)
(-0.234232 0.119606 0)
(-0.23077 0.138164 0)
(-0.226172 0.1573 0)
(-0.220183 0.176735 0)
(-0.212525 0.196051 0)
(-0.20291 0.214665 0)
(-0.191061 0.231805 0)
(-0.176753 0.246487 0)
(-0.159856 0.257509 0)
(-0.140401 0.263462 0)
(-0.118654 0.262772 0)
(-0.0951978 0.253783 0)
(-0.0710029 0.23488 0)
(-0.0474444 0.204662 0)
(-0.0262459 0.162131 0)
(-0.0097867 0.106878 0)
(-0.00155093 0.0392959 0)
(-0.00123735 -0.0328094 0)
(-0.00796503 -0.0888934 0)
(-0.0216465 -0.134833 0)
(-0.0396636 -0.170637 0)
(-0.0602617 -0.196809 0)
(-0.0821515 -0.214196 0)
(-0.104245 -0.223865 0)
(-0.125704 -0.226993 0)
(-0.145943 -0.224767 0)
(-0.164594 -0.218313 0)
(-0.181462 -0.208648 0)
(-0.196484 -0.196659 0)
(-0.209691 -0.183089 0)
(-0.221177 -0.168542 0)
(-0.23107 -0.153492 0)
(-0.239522 -0.138297 0)
(-0.246685 -0.123212 0)
(-0.252709 -0.108407 0)
(-0.257735 -0.0939799 0)
(-0.261887 -0.0799693 0)
(-0.265276 -0.0663662 0)
(-0.267994 -0.0531237 0)
(-0.270116 -0.0401657 0)
(-0.2717 -0.0273942 0)
(-0.272787 -0.0146952 0)
(-0.273401 -0.00194508 0)
(-0.273546 0.0109845 0)
(-0.273211 0.0242209 0)
(-0.272362 0.0378844 0)
(-0.270947 0.0520823 0)
(-0.268891 0.066901 0)
(-0.266095 0.0823966 0)
(-0.262437 0.0985849 0)
(-0.257768 0.115428 0)
(-0.251914 0.132819 0)
(-0.24468 0.150565 0)
(-0.235854 0.168368 0)
(-0.225218 0.185804 0)
(-0.212567 0.202305 0)
(-0.197729 0.21714 0)
(-0.180604 0.229411 0)
(-0.1612 0.238051 0)
(-0.139692 0.241847 0)
(-0.116471 0.239488 0)
(-0.0922065 0.229639 0)
(-0.0678849 0.211044 0)
(-0.0448028 0.182665 0)
(-0.0244976 0.143815 0)
(-0.00902683 0.0942841 0)
(-0.00140488 0.0344804 0)
(-0.00115599 -0.0288477 0)
(-0.00753051 -0.0783896 0)
(-0.0206327 -0.119303 0)
(-0.0381177 -0.151584 0)
(-0.0584264 -0.175605 0)
(-0.0803929 -0.192019 0)
(-0.102994 -0.201666 0)
(-0.125402 -0.205489 0)
(-0.146999 -0.204465 0)
(-0.167355 -0.199533 0)
(-0.186197 -0.191567 0)
(-0.20338 -0.181337 0)
(-0.218853 -0.169505 0)
(-0.232637 -0.156621 0)
(-0.2448 -0.143125 0)
(-0.255437 -0.129356 0)
(-0.26466 -0.115564 0)
(-0.272588 -0.101921 0)
(-0.279334 -0.0885342 0)
(-0.285005 -0.0754533 0)
(-0.289699 -0.0626839 0)
(-0.293497 -0.0501948 0)
(-0.296469 -0.0379263 0)
(-0.298664 -0.0257973 0)
(-0.300121 -0.0137111 0)
(-0.300856 -0.00156157 0)
(-0.30087 0.0107612 0)
(-0.300147 0.0233657 0)
(-0.298649 0.0363524 0)
(-0.29632 0.0498078 0)
(-0.293085 0.0637964 0)
(-0.288845 0.0783522 0)
(-0.283486 0.0934683 0)
(-0.276871 0.109086 0)
(-0.268848 0.125079 0)
(-0.259256 0.141243 0)
(-0.24793 0.157277 0)
(-0.234715 0.172768 0)
(-0.219483 0.187181 0)
(-0.20216 0.199847 0)
(-0.182751 0.209962 0)
(-0.161379 0.2166 0)
(-0.138325 0.218734 0)
(-0.114068 0.215284 0)
(-0.0893252 0.205183 0)
(-0.06507 0.187462 0)
(-0.042512 0.161352 0)
(-0.0230231 0.126386 0)
(-0.00839954 0.0824787 0)
(-0.001287 0.0300271 0)
(-0.00109337 -0.0250861 0)
(-0.0071908 -0.0683291 0)
(-0.0198289 -0.104275 0)
(-0.0368708 -0.132912 0)
(-0.0569102 -0.154527 0)
(-0.078884 -0.169621 0)
(-0.10183 -0.178856 0)
(-0.12494 -0.182991 0)
(-0.147581 -0.182818 0)
(-0.169282 -0.179118 0)
(-0.189713 -0.172627 0)
(-0.208664 -0.164007 0)
(-0.22602 -0.153835 0)
(-0.241738 -0.142599 0)
(-0.255831 -0.130696 0)
(-0.268346 -0.118439 0)
(-0.279356 -0.106063 0)
(-0.288945 -0.0937354 0)
(-0.297203 -0.0815638 0)
(-0.304215 -0.0696052 0)
(-0.310064 -0.0578752 0)
(-0.314819 -0.0463551 0)
(-0.31854 -0.0349995 0)
(-0.321271 -0.0237427 0)
(-0.323041 -0.0125044 0)
(-0.323863 -0.00119582 0)
(-0.323734 0.0102754 0)
(-0.322633 0.0219994 0)
(-0.320519 0.034058 0)
(-0.317336 0.0465187 0)
(-0.31301 0.0594272 0)
(-0.307449 0.0727994 0)
(-0.300546 0.086612 0)
(-0.292184 0.100792 0)
(-0.282236 0.115207 0)
(-0.270577 0.129649 0)
(-0.257089 0.143829 0)
(-0.241677 0.157361 0)
(-0.224287 0.169754 0)
(-0.204927 0.180411 0)
(-0.183691 0.188632 0)
(-0.160793 0.193625 0)
(-0.136593 0.194536 0)
(-0.111629 0.190485 0)
(-0.0866378 0.180627 0)
(-0.0625656 0.164218 0)
(-0.0405362 0.140692 0)
(-0.0217793 0.109735 0)
(-0.0078795 0.0713398 0)
(-0.00119107 0.025873 0)
(-0.00104497 -0.0214809 0)
(-0.00692482 -0.0586204 0)
(-0.0191923 -0.0896533 0)
(-0.0358694 -0.114569 0)
(-0.0556687 -0.133586 0)
(-0.0776113 -0.147092 0)
(-0.100789 -0.15561 0)
(-0.124417 -0.15974 0)
(-0.147856 -0.160125 0)
(-0.17061 -0.157404 0)
(-0.192307 -0.152187 0)
(-0.212689 -0.145033 0)
(-0.231587 -0.136434 0)
(-0.248909 -0.126813 0)
(-0.264617 -0.116519 0)
(-0.278718 -0.105832 0)
(-0.291248 -0.0949662 0)
(-0.30226 -0.0840762 0)
(-0.311818 -0.0732657 0)
(-0.319988 -0.0625934 0)
(-0.326836 -0.0520811 0)
(-0.332419 -0.0417197 0)
(-0.336786 -0.0314756 0)
(-0.339974 -0.0212971 0)
(-0.342004 -0.0111189 0)
(-0.342884 -0.000868264 0)
(-0.342607 0.00953045 0)
(-0.341148 0.0201503 0)
(-0.338467 0.0310563 0)
(-0.334506 0.0422992 0)
(-0.329197 0.0539095 0)
(-0.322454 0.0658894 0)
(-0.314184 0.078205 0)
(-0.304289 0.0907776 0)
(-0.292669 0.103474 0)
(-0.279234 0.116098 0)
(-0.263912 0.12838 0)
(-0.246663 0.139969 0)
(-0.227498 0.150433 0)
(-0.206492 0.159252 0)
(-0.183816 0.165829 0)
(-0.159751 0.169501 0)
(-0.134717 0.169568 0)
(-0.109286 0.165324 0)
(-0.0842011 0.156107 0)
(-0.0603737 0.141348 0)
(-0.0388485 0.120636 0)
(-0.0207353 0.0937622 0)
(-0.00744909 0.0607628 0)
(-0.00111287 0.0219665 0)
(-0.0010076 -0.017998 0)
(-0.00671742 -0.0491899 0)
(-0.0186914 -0.0753605 0)
(-0.0350723 -0.0965015 0)
(-0.054665 -0.112779 0)
(-0.0765576 -0.124494 0)
(-0.0998884 -0.132051 0)
(-0.123894 -0.135925 0)
(-0.147939 -0.136626 0)
(-0.171508 -0.134669 0)
(-0.194203 -0.13055 0)
(-0.215726 -0.124729 0)
(-0.235868 -0.117618 0)
(-0.254494 -0.109571 0)
(-0.271529 -0.100888 0)
(-0.286943 -0.0918092 0)
(-0.300738 -0.0825229 0)
(-0.31294 -0.0731672 0)
(-0.323591 -0.0638367 0)
(-0.332738 -0.0545879 0)
(-0.340429 -0.045445 0)
(-0.346711 -0.0364056 0)
(-0.351621 -0.027446 0)
(-0.355188 -0.018526 0)
(-0.357427 -0.00959433 0)
(-0.358342 -0.000592738 0)
(-0.35792 0.00853908 0)
(-0.356135 0.0178588 0)
(-0.352945 0.0274165 0)
(-0.348298 0.0372493 0)
(-0.342126 0.0473754 0)
(-0.334356 0.0577882 0)
(-0.324908 0.0684487 0)
(-0.313701 0.0792788 0)
(-0.300664 0.0901537 0)
(-0.285738 0.100894 0)
(-0.268894 0.111261 0)
(-0.250139 0.120948 0)
(-0.229539 0.129584 0)
(-0.207229 0.13673 0)
(-0.183435 0.141891 0)
(-0.158493 0.144524 0)
(-0.132861 0.144068 0)
(-0.107136 0.139965 0)
(-0.0820551 0.131703 0)
(-0.0584941 0.118854 0)
(-0.0374284 0.101121 0)
(-0.0198692 0.0783693 0)
(-0.00709598 0.0506555 0)
(-0.00104951 0.0182639 0)
(-0.00097906 -0.0146098 0)
(-0.00655764 -0.0399771 0)
(-0.0183027 -0.0613291 0)
(-0.034448 -0.07866 0)
(-0.0538688 -0.092095 0)
(-0.0757062 -0.101863 0)
(-0.0991358 -0.108273 0)
(-0.123416 -0.111691 0)
(-0.147913 -0.112512 0)
(-0.172104 -0.111142 0)
(-0.195568 -0.107972 0)
(-0.217982 -0.10337 0)
(-0.239106 -0.0976668 0)
(-0.25877 -0.0911526 0)
(-0.276868 -0.084072 0)
(-0.293339 -0.0766255 0)
(-0.308159 -0.0689703 0)
(-0.32133 -0.0612243 0)
(-0.332873 -0.0534694 0)
(-0.342819 -0.0457562 0)
(-0.351202 -0.0381087 0)
(-0.358055 -0.0305285 0)
(-0.363408 -0.0229993 0)
(-0.367281 -0.0154914 0)
(-0.369684 -0.00796537 0)
(-0.370615 -0.000376108 0)
(-0.370059 0.0073229 0)
(-0.367987 0.0151757 0)
(-0.36436 0.0232197 0)
(-0.359126 0.0314808 0)
(-0.352225 0.0399687 0)
(-0.343591 0.0486717 0)
(-0.333158 0.057551 0)
(-0.320863 0.0665348 0)
(-0.306659 0.0755125 0)
(-0.290518 0.0843294 0)
(-0.272443 0.0927823 0)
(-0.252486 0.100616 0)
(-0.230755 0.107524 0)
(-0.207433 0.113148 0)
(-0.182789 0.117092 0)
(-0.157199 0.118925 0)
(-0.131151 0.118209 0)
(-0.105251 0.114514 0)
(-0.0802291 0.107454 0)
(-0.0569266 0.096712 0)
(-0.0362614 0.0820762 0)
(-0.0191653 0.063463 0)
(-0.00681154 0.0409347 0)
(-0.000998987 0.0147272 0)
(-0.00095776 -0.0112938 0)
(-0.00643765 -0.0309314 0)
(-0.018009 -0.0475009 0)
(-0.033973 -0.0609986 0)
(-0.0532571 -0.0715161 0)
(-0.0750424 -0.0792213 0)
(-0.0985341 -0.084342 0)
(-0.123007 -0.0871495 0)
(-0.147834 -0.0879391 0)
(-0.172486 -0.0870144 0)
(-0.196529 -0.0846726 0)
(-0.219618 -0.0811934 0)
(-0.241489 -0.0768312 0)
(-0.261951 -0.0718099 0)
(-0.28087 -0.0663204 0)
(-0.298162 -0.0605198 0)
(-0.313781 -0.0545329 0)
(-0.327711 -0.0484538 0)
(-0.339955 -0.042349 0)
(-0.350528 -0.0362605 0)
(-0.359455 -0.0302097 0)
(-0.366757 -0.0241999 0)
(-0.372457 -0.0182207 0)
(-0.376567 -0.0122507 0)
(-0.379093 -0.00626101 0)
(-0.380028 -0.000218446 0)
(-0.379355 0.00591138 0)
(-0.377046 0.0121607 0)
(-0.37306 0.018556 0)
(-0.367348 0.0251147 0)
(-0.359857 0.0318409 0)
(-0.350528 0.0387216 0)
(-0.339306 0.045722 0)
(-0.326147 0.0527815 0)
(-0.311021 0.0598091 0)
(-0.293926 0.0666796 0)
(-0.274895 0.0732306 0)
(-0.254012 0.0792608 0)
(-0.231419 0.0845304 0)
(-0.207336 0.0887638 0)
(-0.182066 0.0916563 0)
(-0.156012 0.0928835 0)
(-0.129681 0.0921164 0)
(-0.103686 0.0890386 0)
(-0.0787447 0.0833677 0)
(-0.0556716 0.074878 0)
(-0.0353373 0.063423 0)
(-0.0186125 0.0489523 0)
(-0.00658974 0.0315236 0)
(-0.000959901 0.0113221 0)
(-0.000942612 -0.00803092 0)
(-0.00635191 -0.0220093 0)
(-0.0177983 -0.0338246 0)
(-0.0336302 -0.0434743 0)
(-0.0528124 -0.0510214 0)
(-0.0745545 -0.0565805 0)
(-0.0980835 -0.0603082 0)
(-0.122688 -0.0623913 0)
(-0.147745 -0.0630343 0)
(-0.172721 -0.0624484 0)
(-0.197176 -0.0608415 0)
(-0.220749 -0.0584102 0)
(-0.243161 -0.0553343 0)
(-0.264201 -0.0517728 0)
(-0.283719 -0.0478622 0)
(-0.301611 -0.0437154 0)
(-0.317817 -0.0394225 0)
(-0.332305 -0.0350521 0)
(-0.345065 -0.0306531 0)
(-0.356103 -0.0262571 0)
(-0.365431 -0.0218804 0)
(-0.373065 -0.0175269 0)
(-0.379019 -0.0131902 0)
(-0.383303 -0.00885599 0)
(-0.385915 -0.00450474 0)
(-0.386849 -0.000113672 0)
(-0.386083 0.0043407 0)
(-0.38359 0.00888019 0)
(-0.379329 0.0135224 0)
(-0.373255 0.0182782 0)
(-0.365317 0.0231485 0)
(-0.355465 0.028122 0)
(-0.343653 0.0331715 0)
(-0.329849 0.0382509 0)
(-0.31404 0.0432926 0)
(-0.296242 0.0482047 0)
(-0.27651 0.0528691 0)
(-0.254954 0.0571406 0)
(-0.231741 0.0608477 0)
(-0.207116 0.0637947 0)
(-0.181407 0.0657668 0)
(-0.155036 0.0665376 0)
(-0.128522 0.0658788 0)
(-0.102479 0.0635734 0)
(-0.0776181 0.0594296 0)
(-0.0547293 0.0532965 0)
(-0.0346492 0.0450788 0)
(-0.0182035 0.0347479 0)
(-0.00642646 0.0223497 0)
(-0.000931299 0.00801708 0)
(-0.000932885 -0.00480438 0)
(-0.00629666 -0.0131723 0)
(-0.0176621 -0.0202534 0)
(-0.0334078 -0.0260464 0)
(-0.0525224 -0.0305879 0)
(-0.0742339 -0.0339449 0)
(-0.0977837 -0.0362089 0)
(-0.122469 -0.0374892 0)
(-0.147671 -0.0379061 0)
(-0.172855 -0.0375842 0)
(-0.197573 -0.0366462 0)
(-0.221459 -0.035209 0)
(-0.244221 -0.0333796 0)
(-0.265638 -0.031253 0)
(-0.285546 -0.0289112 0)
(-0.303832 -0.026422 0)
(-0.320423 -0.0238399 0)
(-0.335277 -0.0212067 0)
(-0.348377 -0.0185522 0)
(-0.35972 -0.0158959 0)
(-0.369313 -0.0132482 0)
(-0.377165 -0.0106119 0)
(-0.383287 -0.00798355 0)
(-0.387683 -0.00535511 0)
(-0.390351 -0.00271519 0)
(-0.391281 -5.05683e-05 0)
(-0.390451 0.00265242 0)
(-0.387832 0.00540636 0)
(-0.383386 0.00822127 0)
(-0.377068 0.011103 0)
(-0.368831 0.0140513 0)
(-0.358629 0.0170586 0)
(-0.346425 0.0201075 0)
(-0.332193 0.0231694 0)
(-0.315932 0.0262026 0)
(-0.297671 0.0291511 0)
(-0.277482 0.0319432 0)
(-0.255486 0.0344912 0)
(-0.231872 0.0366922 0)
(-0.2069 0.0384293 0)
(-0.180913 0.039575 0)
(-0.154345 0.0399953 0)
(-0.127722 0.0395562 0)
(-0.10166 0.0381309 0)
(-0.0768608 0.0356082 0)
(-0.0541007 0.0319016 0)
(-0.0341927 0.0269575 0)
(-0.0179333 0.0207617 0)
(-0.00631897 0.0133433 0)
(-0.000912548 0.00478243 0)
(-0.000928129 -0.00159908 0)
(-0.00626959 -0.00438518 0)
(-0.0175952 -0.00674414 0)
(-0.0332984 -0.00867559 0)
(-0.0523792 -0.0101916 0)
(-0.074075 -0.0113141 0)
(-0.097634 -0.0120732 0)
(-0.122358 -0.012505 0)
(-0.14763 -0.0126492 0)
(-0.172915 -0.0125468 0)
(-0.197762 -0.0122385 0)
(-0.221801 -0.011763 0)
(-0.244735 -0.011156 0)
(-0.266337 -0.0104489 0)
(-0.286438 -0.0096691 0)
(-0.304918 -0.00883924 0)