/*--------------------------------*- C++ -*----------------------------------*\
  =========                 |
  \\      /  F ield         | OpenFOAM: The Open Source CFD Toolbox
   \\    /   O peration     | Website:  https://openfoam.org
    \\  /    A nd           | Version:  7
     \\/     M anipulation  |
\*---------------------------------------------------------------------------*/
FoamFile
{
    version     2.0;
    format      ascii;
    class       volScalarField;
    location    "0.0054";
    object      p;
}
// * * * * * * * * * * * * * * * * * * * * * * * * * * * * * * * * * * * * * //

dimensions      [0 2 -2 0 0 0 0];

internalField   nonuniform List<scalar> 
2500
(
-6.01578e-07
-6.49851
-9.26389
-10.4367
-11.079
-11.464
-11.7093
-11.8793
-12.006
-12.1059
-12.188
-12.2579
-12.3189
-12.3732
-12.4224
-12.4674
-12.5091
-12.5482
-12.585
-12.6199
-12.6534
-12.6857
-12.7171
-12.7479
-12.7782
-12.8084
-12.8386
-12.869
-12.9
-12.9316
-12.9641
-12.9978
-13.0329
-13.0697
-13.1085
-13.1496
-13.1936
-13.2412
-13.2933
-13.3517
-13.419
-13.4999
-13.6024
-13.7421
-13.9499
-14.2879
-14.8649
-15.9434
-18.5935
-24.9706
-4.96866
-7.67508
-9.16681
-10.1103
-10.7604
-11.2031
-11.5087
-11.7282
-11.8924
-12.0198
-12.1221
-12.2068
-12.2788
-12.3414
-12.3969
-12.4469
-12.4926
-12.5349
-12.5743
-12.6116
-12.6471
-12.6813
-12.7144
-12.7467
-12.7786
-12.8104
-12.8422
-12.8743
-12.907
-12.9406
-12.9754
-13.0117
-13.0498
-13.0902
-13.1335
-13.1803
-13.2315
-13.2884
-13.353
-13.4279
-13.5175
-13.6284
-13.7714
-13.9639
-14.235
-14.6336
-15.2262
-16.0972
-17.5035
-20.0957
-7.95631
-8.77072
-9.55747
-10.2248
-10.7506
-11.146
-11.4415
-11.6654
-11.8383
-11.975
-12.0856
-12.1772
-12.2548
-12.3219
-12.3811
-12.434
-12.4821
-12.5264
-12.5676
-12.6063
-12.6431
-12.6785
-12.7127
-12.7461
-12.7791
-12.8118
-12.8447
-12.878
-12.9119
-12.9469
-12.9832
-13.0212
-13.0614
-13.1042
-13.1504
-13.2008
-13.2565
-13.319
-13.3904
-13.4737
-13.5732
-13.6953
-13.8494
-14.0488
-14.3131
-14.6692
-15.1466
-15.7593
-16.4916
-17.2453
-9.48212
-9.67345
-10.0765
-10.5086
-10.8892
-11.2038
-11.4579
-11.662
-11.8264
-11.9602
-12.0707
-12.1635
-12.2428
-12.3116
-12.3723
-12.4266
-12.476
-12.5213
-12.5635
-12.6031
-12.6407
-12.6768
-12.7117
-12.7458
-12.7794
-12.8128
-12.8464
-12.8804
-12.9151
-12.951
-12.9882
-13.0273
-13.0688
-13.1131
-13.161
-13.2134
-13.2713
-13.3363
-13.4103
-13.4959
-13.5967
-13.7175
-13.8648
-14.0466
-14.2729
-14.5535
-14.8948
-15.2862
-15.6544
-15.8191
-10.3802
-10.3536
-10.5401
-10.8042
-11.0675
-11.3067
-11.5146
-11.6912
-11.8398
-11.9647
-12.0705
-12.161
-12.2392
-12.3077
-12.3685
-12.4232
-12.4729
-12.5186
-12.5612
-12.6013
-12.6393
-12.6757
-12.711
-12.7455
-12.7795
-12.8133
-12.8473
-12.8817
-12.9169
-12.9532
-12.991
-13.0306
-13.0727
-13.1177
-13.1663
-13.2193
-13.2778
-13.343
-13.4166
-13.5005
-13.5974
-13.7103
-13.8431
-13.9995
-14.1828
-14.3932
-14.6257
-14.8608
-15.026
-14.9913
-10.9532
-10.8513
-10.9218
-11.0765
-11.2535
-11.4299
-11.5945
-11.7421
-11.8717
-11.9845
-12.0825
-12.168
-12.2432
-12.3098
-12.3695
-12.4234
-12.4728
-12.5183
-12.5608
-12.6008
-12.6388
-12.6753
-12.7106
-12.7451
-12.7792
-12.8131
-12.8471
-12.8816
-12.9169
-12.9533
-12.9911
-13.0308
-13.0728
-13.1176
-13.1659
-13.2183
-13.2758
-13.3392
-13.4099
-13.4892
-13.5787
-13.6801
-13.7951
-13.9245
-14.0677
-14.2207
-14.3743
-14.509
-14.5681
-14.4683
-11.3353
-11.2174
-11.2297
-11.316
-11.4319
-11.559
-11.6862
-11.8063
-11.9164
-12.0155
-12.1041
-12.1831
-12.2538
-12.3173
-12.3748
-12.4272
-12.4754
-12.5201
-12.562
-12.6015
-12.6392
-12.6753
-12.7104
-12.7447
-12.7785
-12.8121
-12.8459
-12.8802
-12.9151
-12.9511
-12.9885
-13.0277
-13.069
-13.1129
-13.16
-13.2108
-13.2659
-13.3261
-13.3922
-13.465
-13.5453
-13.6337
-13.7304
-13.8346
-13.9438
-14.0524
-14.1512
-14.2245
-14.2317
-14.1206
-11.6029
-11.4915
-11.4761
-11.5206
-11.5946
-11.6846
-11.7811
-11.8772
-11.9689
-12.0544
-12.1329
-12.2046
-12.2698
-12.3294
-12.3839
-12.4341
-12.4806
-12.524
-12.5648
-12.6035
-12.6404
-12.6759
-12.7103
-12.7441
-12.7774
-12.8105
-12.8437
-12.8774
-12.9117
-12.9469
-12.9835
-13.0216
-13.0617
-13.1041
-13.1492
-13.1975
-13.2494
-13.3054
-13.366
-13.4314
-13.5019
-13.5775
-13.6573
-13.7398
-13.8218
-13.8977
-13.9597
-13.9962
-13.9796
-13.8766
-11.7991
-11.701
-11.6736
-11.6933
-11.7392
-11.802
-11.8743
-11.9502
-12.0256
-12.0982
-12.1668
-12.2308
-12.2902
-12.3453
-12.3963
-12.4438
-12.4881
-12.5298
-12.5691
-12.6065
-12.6424
-12.6769
-12.7105
-12.7434
-12.7759
-12.8082
-12.8406
-12.8733
-12.9067
-12.9408
-12.9762
-13.0129
-13.0513
-13.0917
-13.1344
-13.1797
-13.2278
-13.2791
-13.3337
-13.3917
-13.4527
-13.5164
-13.5816
-13.6462
-13.7073
-13.7598
-13.7976
-13.8128
-13.7863
-13.6967
-11.9482
-11.8646
-11.8334
-11.8386
-11.866
-11.9094
-11.9632
-12.0226
-12.084
-12.145
-12.2042
-12.2606
-12.3141
-12.3643
-12.4115
-12.4559
-12.4977
-12.5373
-12.5748
-12.6107
-12.6452
-12.6785
-12.7109
-12.7427
-12.7742
-12.8054
-12.8367
-12.8683
-12.9004
-12.9332
-12.967
-13.002
-13.0384
-13.0764
-13.1163
-13.1583
-13.2024
-13.2489
-13.2976
-13.3483
-13.4007
-13.4539
-13.5067
-13.5572
-13.6025
-13.6385
-13.6608
-13.6638
-13.6347
-13.5588
-12.0652
-11.9951
-11.9642
-11.9615
-11.9769
-12.0065
-12.0463
-12.0925
-12.1422
-12.1931
-12.2437
-12.293
-12.3405
-12.386
-12.4292
-12.4702
-12.5092
-12.5464
-12.5819
-12.616
-12.6488
-12.6807
-12.7117
-12.7422
-12.7723
-12.8022
-12.8322
-12.8624
-12.893
-12.9242
-12.9563
-12.9893
-13.0235
-13.059
-13.0959
-13.1344
-13.1745
-13.2161
-13.2592
-13.3033
-13.3479
-13.3922
-13.4349
-13.4743
-13.5078
-13.5324
-13.5448
-13.5413
-13.513
-13.4496
-12.1596
-12.1013
-12.0729
-12.0661
-12.0739
-12.0939
-12.1233
-12.1591
-12.1991
-12.2413
-12.2842
-12.327
-12.3689
-12.4096
-12.4487
-12.4863
-12.5224
-12.557
-12.5902
-12.6222
-12.6533
-12.6834
-12.7129
-12.7418
-12.7704
-12.7988
-12.8273
-12.8559
-12.8848
-12.9143
-12.9444
-12.9753
-13.0071
-13.0399
-13.0738
-13.1088
-13.1449
-13.182
-13.2198
-13.258
-13.2959
-13.3326
-13.3672
-13.3979
-13.4228
-13.4396
-13.4457
-13.439
-13.4131
-13.3605
-12.2378
-12.1897
-12.1644
-12.1559
-12.159
-12.1724
-12.1941
-12.2219
-12.254
-12.2888
-12.3251
-12.3619
-12.3986
-12.4347
-12.4698
-12.5039
-12.5369
-12.5688
-12.5996
-12.6295
-12.6585
-12.6867
-12.7144
-12.7417
-12.7686
-12.7954
-12.8221
-12.849
-12.8761
-12.9036
-12.9317
-12.9603
-12.9896
-13.0197
-13.0506
-13.0822
-13.1145
-13.1474
-13.1804
-13.2133
-13.2453
-13.2759
-13.3038
-13.3279
-13.3465
-13.3579
-13.3603
-13.3523
-13.3294
-13.2859
-12.3043
-12.2648
-12.2428
-12.2339
-12.2342
-12.2431
-12.2591
-12.2807
-12.3064
-12.3351
-12.3656
-12.3971
-12.429
-12.4607
-12.492
-12.5227
-12.5526
-12.5817
-12.61
-12.6376
-12.6644
-12.6907
-12.7164
-12.7418
-12.7669
-12.7919
-12.8168
-12.8418
-12.867
-12.8925
-12.9183
-12.9447
-12.9715
-12.9989
-13.0268
-13.0551
-13.0839
-13.1127
-13.1415
-13.1697
-13.1968
-13.2222
-13.2449
-13.2638
-13.2778
-13.2855
-13.2857
-13.2775
-13.2577
-13.2219
-12.3621
-12.3297
-12.311
-12.3024
-12.3012
-12.307
-12.3188
-12.3356
-12.3563
-12.3798
-12.4054
-12.4322
-12.4597
-12.4874
-12.5151
-12.5424
-12.5692
-12.5955
-12.6213
-12.6464
-12.671
-12.6952
-12.7189
-12.7423
-12.7655
-12.7885
-12.8115
-12.8345
-12.8577
-12.881
-12.9047
-12.9286
-12.953
-12.9777
-13.0027
-13.0279
-13.0533
-13.0786
-13.1035
-13.1276
-13.1505
-13.1716
-13.19
-13.2051
-13.2157
-13.2208
-13.2198
-13.212
-13.1951
-13.1657
-12.4135
-12.387
-12.3712
-12.3633
-12.3614
-12.3651
-12.3739
-12.3869
-12.4035
-12.4228
-12.4441
-12.4668
-12.4904
-12.5144
-12.5386
-12.5627
-12.5865
-12.6101
-12.6332
-12.6559
-12.6782
-12.7001
-12.7217
-12.7431
-12.7642
-12.7852
-12.8062
-12.8272
-12.8482
-12.8694
-12.8908
-12.9124
-12.9343
-12.9563
-12.9785
-13.0008
-13.0231
-13.0451
-13.0665
-13.0871
-13.1064
-13.1239
-13.139
-13.1509
-13.159
-13.1625
-13.1609
-13.1538
-13.1395
-13.1154
-12.4601
-12.4385
-12.4252
-12.4183
-12.416
-12.4183
-12.4248
-12.435
-12.4483
-12.4641
-12.4817
-12.5008
-12.5208
-12.5414
-12.5624
-12.5834
-12.6044
-12.6252
-12.6457
-12.666
-12.6859
-12.7056
-12.725
-12.7442
-12.7632
-12.7822
-12.801
-12.8199
-12.8388
-12.8578
-12.8769
-12.8961
-12.9155
-12.935
-12.9546
-12.9741
-12.9934
-13.0124
-13.0308
-13.0482
-13.0644
-13.0789
-13.0912
-13.1008
-13.107
-13.1094
-13.1075
-13.1013
-13.0893
-13.0696
-12.5029
-12.4853
-12.4744
-12.4683
-12.466
-12.4674
-12.4723
-12.4802
-12.4908
-12.5036
-12.5181
-12.534
-12.5508
-12.5684
-12.5863
-12.6044
-12.6226
-12.6407
-12.6587
-12.6765
-12.6941
-12.7114
-12.7286
-12.7456
-12.7625
-12.7793
-12.796
-12.8127
-12.8294
-12.8462
-12.863
-12.8799
-12.8969
-12.9139
-12.9308
-12.9477
-12.9643
-12.9806
-12.9962
-13.0109
-13.0244
-13.0364
-13.0464
-13.054
-13.0589
-13.0605
-13.0586
-13.0533
-13.0434
-13.0273
-12.5428
-12.5286
-12.5196
-12.5145
-12.5124
-12.5131
-12.5168
-12.5229
-12.5313
-12.5416
-12.5534
-12.5665
-12.5804
-12.5951
-12.6102
-12.6255
-12.641
-12.6566
-12.672
-12.6874
-12.7026
-12.7177
-12.7326
-12.7474
-12.762
-12.7766
-12.7911
-12.8056
-12.8201
-12.8347
-12.8492
-12.8638
-12.8784
-12.893
-12.9075
-12.9218
-12.9359
-12.9496
-12.9626
-12.9749
-12.9861
-12.9959
-13.004
-13.0101
-13.0139
-13.015
-13.0133
-13.0089
-13.0008
-12.9878
-12.5805
-12.5691
-12.5619
-12.5577
-12.5557
-12.5561
-12.5588
-12.5635
-12.57
-12.5782
-12.5876
-12.5982
-12.6095
-12.6215
-12.634
-12.6467
-12.6597
-12.6727
-12.6856
-12.6986
-12.7114
-12.7242
-12.7368
-12.7494
-12.7618
-12.7742
-12.7865
-12.7988
-12.8111
-12.8233
-12.8356
-12.8479
-12.8601
-12.8723
-12.8844
-12.8964
-12.9081
-12.9194
-12.9301
-12.9402
-12.9493
-12.9572
-12.9638
-12.9686
-12.9715
-12.9723
-12.9709
-12.9672
-12.9607
-12.9504
-12.6164
-12.6075
-12.6018
-12.5984
-12.5967
-12.5969
-12.5988
-12.6023
-12.6073
-12.6135
-12.6209
-12.6292
-12.6382
-12.6477
-12.6577
-12.668
-12.6784
-12.6889
-12.6995
-12.7101
-12.7206
-12.731
-12.7413
-12.7516
-12.7618
-12.772
-12.782
-12.7921
-12.8021
-12.8122
-12.8222
-12.8321
-12.8421
-12.852
-12.8618
-12.8714
-12.8808
-12.8899
-12.8985
-12.9065
-12.9138
-12.9201
-12.9252
-12.929
-12.9313
-12.9318
-12.9307
-12.9278
-12.9227
-12.9147
-12.6509
-12.6442
-12.6399
-12.6373
-12.6359
-12.6359
-12.6372
-12.6397
-12.6433
-12.6479
-12.6534
-12.6596
-12.6664
-12.6737
-12.6813
-12.6892
-12.6972
-12.7054
-12.7135
-12.7217
-12.7299
-12.738
-12.7461
-12.7541
-12.7621
-12.77
-12.7778
-12.7856
-12.7934
-12.8012
-12.8089
-12.8166
-12.8243
-12.8319
-12.8395
-12.8469
-12.8541
-12.8611
-12.8677
-12.8738
-12.8793
-12.8841
-12.888
-12.8909
-12.8926
-12.8931
-12.8922
-12.89
-12.8863
-12.8803
-12.6844
-12.6797
-12.6766
-12.6747
-12.6737
-12.6736
-12.6744
-12.676
-12.6784
-12.6815
-12.6853
-12.6896
-12.6943
-12.6994
-12.7048
-12.7104
-12.7161
-12.7219
-12.7278
-12.7336
-12.7395
-12.7453
-12.7511
-12.7569
-12.7625
-12.7682
-12.7738
-12.7794
-12.7849
-12.7904
-12.7959
-12.8013
-12.8068
-12.8122
-12.8175
-12.8227
-12.8278
-12.8327
-12.8374
-12.8417
-12.8457
-12.8491
-12.8519
-12.8539
-12.8552
-12.8555
-12.855
-12.8535
-12.851
-12.8469
-12.7172
-12.7143
-12.7124
-12.7112
-12.7105
-12.7103
-12.7107
-12.7115
-12.7128
-12.7146
-12.7167
-12.7192
-12.722
-12.725
-12.7282
-12.7316
-12.735
-12.7386
-12.7421
-12.7457
-12.7493
-12.7528
-12.7563
-12.7598
-12.7632
-12.7666
-12.77
-12.7733
-12.7766
-12.7798
-12.783
-12.7863
-12.7894
-12.7926
-12.7957
-12.7988
-12.8018
-12.8048
-12.8076
-12.8102
-12.8126
-12.8147
-12.8164
-12.8177
-12.8186
-12.8189
-12.8186
-12.8179
-12.8164
-12.8141
-12.7496
-12.7485
-12.7477
-12.7471
-12.7468
-12.7465
-12.7465
-12.7466
-12.7468
-12.7473
-12.7479
-12.7486
-12.7495
-12.7505
-12.7517
-12.7528
-12.7541
-12.7554
-12.7567
-12.758
-12.7593
-12.7605
-12.7618
-12.763
-12.7642
-12.7653
-12.7664
-12.7674
-12.7684
-12.7694
-12.7704
-12.7714
-12.7723
-12.7732
-12.7742
-12.7751
-12.7761
-12.7771
-12.778
-12.7789
-12.7798
-12.7807
-12.7814
-12.782
-12.7825
-12.7827
-12.7828
-12.7827
-12.7823
-12.7818
-12.7818
-12.7824
-12.7827
-12.7829
-12.7828
-12.7825
-12.7821
-12.7815
-12.7807
-12.7799
-12.779
-12.7781
-12.7771
-12.7761
-12.7752
-12.7742
-12.7733
-12.7723
-12.7714
-12.7704
-12.7694
-12.7685
-12.7674
-12.7664
-12.7653
-12.7642
-12.763
-12.7618
-12.7605
-12.7593
-12.758
-12.7567
-12.7553
-12.7541
-12.7528
-12.7516
-12.7505
-12.7495
-12.7486
-12.7478
-12.7472
-12.7468
-12.7465
-12.7464
-12.7465
-12.7467
-12.7471
-12.7476
-12.7484
-12.7495
-12.8142
-12.8165
-12.8179
-12.8187
-12.8189
-12.8186
-12.8178
-12.8165
-12.8147
-12.8126
-12.8102
-12.8076
-12.8048
-12.8019
-12.7988
-12.7958
-12.7926
-12.7895
-12.7863
-12.7831
-12.7798
-12.7766
-12.7733
-12.77
-12.7666
-12.7632
-12.7598
-12.7563
-12.7528
-12.7493
-12.7457
-12.7421
-12.7385
-12.735
-12.7315
-12.7282
-12.725
-12.7219
-12.7191
-12.7167
-12.7145
-12.7128
-12.7115
-12.7106
-12.7103
-12.7105
-12.7112
-12.7124
-12.7143
-12.7171
-12.8469
-12.851
-12.8536
-12.855
-12.8556
-12.8552
-12.854
-12.8519
-12.8491
-12.8457
-12.8418
-12.8374
-12.8327
-12.8278
-12.8227
-12.8175
-12.8122
-12.8068
-12.8014
-12.7959
-12.7904
-12.7849
-12.7794
-12.7738
-12.7682
-12.7625
-12.7568
-12.7511
-12.7453
-12.7395
-12.7336
-12.7277
-12.7219
-12.716
-12.7103
-12.7047
-12.6993
-12.6943
-12.6895
-12.6852
-12.6815
-12.6783
-12.6759
-12.6743
-12.6735
-12.6736
-12.6747
-12.6766
-12.6796
-12.6843
-12.8803
-12.8863
-12.8901
-12.8922
-12.8931
-12.8927
-12.8909
-12.888
-12.8841
-12.8793
-12.8738
-12.8677
-12.8611
-12.8541
-12.8469
-12.8395
-12.832
-12.8243
-12.8166
-12.8089
-12.8012
-12.7934
-12.7856
-12.7778
-12.77
-12.7621
-12.7541
-12.7461
-12.738
-12.7299
-12.7217
-12.7135
-12.7053
-12.6972
-12.6891
-12.6812
-12.6736
-12.6663
-12.6595
-12.6533
-12.6479
-12.6432
-12.6396
-12.6371
-12.6358
-12.6358
-12.6372
-12.6398
-12.6441
-12.6508
-12.9147
-12.9227
-12.9278
-12.9307
-12.9319
-12.9313
-12.929
-12.9252
-12.9201
-12.9138
-12.9066
-12.8985
-12.8899
-12.8809
-12.8715
-12.8618
-12.852
-12.8421
-12.8321
-12.8222
-12.8122
-12.8021
-12.7921
-12.782
-12.7719
-12.7618
-12.7516
-12.7413
-12.731
-12.7205
-12.71
-12.6995
-12.6889
-12.6784
-12.6679
-12.6576
-12.6477
-12.6381
-12.6291
-12.6208
-12.6135
-12.6072
-12.6022
-12.5987
-12.5968
-12.5967
-12.5983
-12.6017
-12.6074
-12.6163
-12.9504
-12.9608
-12.9673
-12.9709
-12.9724
-12.9716
-12.9686
-12.9638
-12.9573
-12.9493
-12.9402
-12.9302
-12.9194
-12.9081
-12.8964
-12.8845
-12.8723
-12.8601
-12.8479
-12.8356
-12.8233
-12.811
-12.7988
-12.7865
-12.7742
-12.7618
-12.7493
-12.7368
-12.7242
-12.7114
-12.6985
-12.6856
-12.6726
-12.6596
-12.6467
-12.6339
-12.6215
-12.6095
-12.5981
-12.5876
-12.5781
-12.57
-12.5634
-12.5587
-12.556
-12.5557
-12.5576
-12.5618
-12.5691
-12.5804
-12.9878
-13.0008
-13.0089
-13.0134
-13.015
-13.0139
-13.0102
-13.0041
-12.9959
-12.9861
-12.9749
-12.9627
-12.9496
-12.9359
-12.9218
-12.9075
-12.893
-12.8784
-12.8638
-12.8492
-12.8347
-12.8201
-12.8056
-12.7911
-12.7766
-12.762
-12.7473
-12.7325
-12.7176
-12.7026
-12.6873
-12.672
-12.6565
-12.641
-12.6255
-12.6101
-12.595
-12.5804
-12.5664
-12.5533
-12.5415
-12.5312
-12.5228
-12.5167
-12.5131
-12.5123
-12.5145
-12.5196
-12.5285
-12.5427
-13.0273
-13.0434
-13.0533
-13.0587
-13.0605
-13.0589
-13.0541
-13.0464
-13.0364
-13.0244
-13.0109
-12.9962
-12.9806
-12.9643
-12.9477
-12.9309
-12.9139
-12.8969
-12.8799
-12.863
-12.8462
-12.8294
-12.8127
-12.796
-12.7793
-12.7625
-12.7456
-12.7286
-12.7114
-12.694
-12.6764
-12.6586
-12.6407
-12.6225
-12.6043
-12.5862
-12.5683
-12.5508
-12.5339
-12.5181
-12.5035
-12.4907
-12.4801
-12.4722
-12.4673
-12.4659
-12.4682
-12.4743
-12.4852
-12.5028
-13.0696
-13.0894
-13.1013
-13.1075
-13.1094
-13.107
-13.1008
-13.0913
-13.079
-13.0645
-13.0483
-13.0308
-13.0124
-12.9934
-12.9741
-12.9546
-12.935
-12.9155
-12.8961
-12.8769
-12.8578
-12.8388
-12.8198
-12.801
-12.7821
-12.7632
-12.7442
-12.725
-12.7056
-12.6859
-12.6659
-12.6457
-12.6251
-12.6043
-12.5833
-12.5623
-12.5414
-12.5207
-12.5007
-12.4816
-12.464
-12.4482
-12.4349
-12.4247
-12.4182
-12.4159
-12.4182
-12.4251
-12.4384
-12.46
-13.1154
-13.1395
-13.1538
-13.1609
-13.1625
-13.159
-13.1509
-13.139
-13.1239
-13.1065
-13.0871
-13.0665
-13.0451
-13.0231
-13.0008
-12.9785
-12.9563
-12.9343
-12.9124
-12.8908
-12.8694
-12.8482
-12.8271
-12.8062
-12.7852
-12.7642
-12.743
-12.7217
-12.7001
-12.6782
-12.6559
-12.6331
-12.61
-12.5865
-12.5626
-12.5385
-12.5143
-12.4903
-12.4667
-12.444
-12.4227
-12.4034
-12.3868
-12.3738
-12.365
-12.3613
-12.3632
-12.3711
-12.3869
-12.4134
-13.1657
-13.1951
-13.2121
-13.2198
-13.2208
-13.2157
-13.2051
-13.1901
-13.1716
-13.1505
-13.1276
-13.1035
-13.0786
-13.0533
-13.0279
-13.0027
-12.9777
-12.953
-12.9286
-12.9047
-12.881
-12.8576
-12.8345
-12.8114
-12.7885
-12.7654
-12.7422
-12.7188
-12.6951
-12.671
-12.6464
-12.6212
-12.5955
-12.5692
-12.5423
-12.515
-12.4873
-12.4596
-12.4321
-12.4053
-12.3797
-12.3562
-12.3355
-12.3187
-12.3069
-12.3011
-12.3023
-12.3109
-12.3296
-12.362
-13.2219
-13.2577
-13.2775
-13.2857
-13.2855
-13.2778
-13.2638
-13.2449
-13.2222
-13.1968
-13.1697
-13.1415
-13.1128
-13.0839
-13.0551
-13.0268
-12.9989
-12.9715
-12.9447
-12.9183
-12.8925
-12.867
-12.8418
-12.8168
-12.7918
-12.7669
-12.7418
-12.7164
-12.6906
-12.6644
-12.6375
-12.61
-12.5816
-12.5525
-12.5226
-12.492
-12.4606
-12.4289
-12.397
-12.3655
-12.335
-12.3063
-12.2806
-12.2589
-12.243
-12.2341
-12.2337
-12.2427
-12.2646
-12.3041
-13.286
-13.3294
-13.3523
-13.3603
-13.3579
-13.3465
-13.3279
-13.3038
-13.2759
-13.2453
-13.2133
-13.1804
-13.1474
-13.1145
-13.0822
-13.0506
-13.0197
-12.9896
-12.9603
-12.9316
-12.9036
-12.8761
-12.849
-12.8221
-12.7953
-12.7685
-12.7416
-12.7144
-12.6867
-12.6584
-12.6294
-12.5995
-12.5687
-12.5368
-12.5038
-12.4697
-12.4346
-12.3985
-12.3618
-12.325
-12.2887
-12.2539
-12.2218
-12.1939
-12.1723
-12.1589
-12.1557
-12.1643
-12.1896
-12.2377
-13.3605
-13.4131
-13.4391
-13.4457
-13.4396
-13.4228
-13.3979
-13.3672
-13.3326
-13.2959
-13.258
-13.2198
-13.182
-13.1449
-13.1088
-13.0738
-13.0399
-13.0071
-12.9753
-12.9444
-12.9143
-12.8848
-12.8559
-12.8272
-12.7988
-12.7704
-12.7418
-12.7128
-12.6833
-12.6532
-12.6222
-12.5901
-12.5569
-12.5223
-12.4862
-12.4486
-12.4095
-12.3688
-12.3269
-12.2841
-12.2412
-12.199
-12.159
-12.1231
-12.0938
-12.0738
-12.0659
-12.0727
-12.1012
-12.1594
-13.4496
-13.513
-13.5413
-13.5448
-13.5325
-13.5078
-13.4743
-13.4349
-13.3922
-13.3479
-13.3033
-13.2592
-13.2161
-13.1745
-13.1344
-13.0959
-13.0589
-13.0234
-12.9893
-12.9562
-12.9242
-12.893
-12.8624
-12.8322
-12.8022
-12.7722
-12.7421
-12.7117
-12.6806
-12.6487
-12.6159
-12.5818
-12.5463
-12.5091
-12.4701
-12.4291
-12.3859
-12.3404
-12.2929
-12.2435
-12.1929
-12.142
-12.0924
-12.0462
-12.0064
-11.9768
-11.9613
-11.9641
-11.9949
-12.065
-13.5588
-13.6347
-13.6638
-13.6608
-13.6385
-13.6025
-13.5572
-13.5067
-13.4539
-13.4007
-13.3483
-13.2976
-13.2489
-13.2024
-13.1583
-13.1163
-13.0764
-13.0383
-13.0019
-12.9669
-12.9332
-12.9003
-12.8682
-12.8366
-12.8053
-12.7741
-12.7427
-12.7109
-12.6784
-12.6451
-12.6106
-12.5748
-12.5372
-12.4976
-12.4558
-12.4114
-12.3642
-12.314
-12.2605
-12.204
-12.1449
-12.0838
-12.0224
-11.9631
-11.9093
-11.8659
-11.8385
-11.8332
-11.8644
-11.948
-13.6967
-13.7863
-13.8128
-13.7976
-13.7598
-13.7073
-13.6462
-13.5816
-13.5164
-13.4527
-13.3917
-13.3337
-13.2791
-13.2278
-13.1796
-13.1344
-13.0917
-13.0513
-13.0129
-12.9761
-12.9408
-12.9066
-12.8733
-12.8405
-12.8081
-12.7758
-12.7434
-12.7104
-12.6769
-12.6423
-12.6065
-12.569
-12.5297
-12.488
-12.4437
-12.3962
-12.3451
-12.2901
-12.2307
-12.1667
-12.0981
-12.0255
-11.95
-11.8742
-11.8019
-11.739
-11.6931
-11.6734
-11.7009
-11.7989
-13.8766
-13.9796
-13.9962
-13.9597
-13.8977
-13.8218
-13.7398
-13.6573
-13.5775
-13.5019
-13.4314
-13.366
-13.3054
-13.2494
-13.1975
-13.1492
-13.1041
-13.0616
-13.0216
-12.9834
-12.9469
-12.9116
-12.8773
-12.8437
-12.8104
-12.7773
-12.744
-12.7103
-12.6758
-12.6403
-12.6034
-12.5647
-12.5239
-12.4805
-12.434
-12.3838
-12.3293
-12.2697
-12.2044
-12.1328
-12.0542
-11.9688
-11.877
-11.7809
-11.6845
-11.5944
-11.5204
-11.4759
-11.4913
-11.6027
-14.1206
-14.2317
-14.2245
-14.1512
-14.0524
-13.9438
-13.8346
-13.7304
-13.6337
-13.5453
-13.465
-13.3922
-13.3261
-13.2659
-13.2107
-13.16
-13.1129
-13.069
-13.0277
-12.9885
-12.9511
-12.9151
-12.8801
-12.8459
-12.8121
-12.7784
-12.7446
-12.7103
-12.6753
-12.6391
-12.6014
-12.5619
-12.5201
-12.4753
-12.4271
-12.3747
-12.3172
-12.2537
-12.183
-12.104
-12.0154
-11.9162
-11.8062
-11.686
-11.5589
-11.4317
-11.3158
-11.2295
-11.2172
-11.3351
-14.4683
-14.5681
-14.509
-14.3743
-14.2207
-14.0677
-13.9245
-13.7951
-13.6801
-13.5787
-13.4892
-13.4099
-13.3392
-13.2758
-13.2183
-13.1659
-13.1176
-13.0727
-13.0307
-12.991
-12.9532
-12.9169
-12.8816
-12.8471
-12.813
-12.7791
-12.7451
-12.7105
-12.6752
-12.6387
-12.6007
-12.5607
-12.5182
-12.4727
-12.4233
-12.3694
-12.3097
-12.2431
-12.1679
-12.0824
-11.9843
-11.8715
-11.742
-11.5944
-11.4297
-11.2533
-11.0763
-10.9216
-10.8511
-10.953
-14.9913
-15.026
-14.8608
-14.6257
-14.3932
-14.1828
-13.9995
-13.8431
-13.7103
-13.5974
-13.5005
-13.4166
-13.343
-13.2778
-13.2193
-13.1663
-13.1177
-13.0727
-13.0306
-12.9909
-12.9531
-12.9168
-12.8816
-12.8472
-12.8132
-12.7794
-12.7454
-12.7109
-12.6756
-12.6392
-12.6012
-12.5611
-12.5186
-12.4728
-12.4231
-12.3684
-12.3076
-12.2391
-12.1608
-12.0704
-11.9646
-11.8396
-11.691
-11.5144
-11.3065
-11.0673
-10.804
-10.5398
-10.3534
-10.38
-15.8191
-15.6544
-15.2862
-14.8948
-14.5535
-14.2729
-14.0466
-13.8648
-13.7175
-13.5967
-13.4959
-13.4103
-13.3363
-13.2713
-13.2134
-13.161
-13.1131
-13.0688
-13.0273
-12.9882
-12.9509
-12.9151
-12.8804
-12.8464
-12.8128
-12.7793
-12.7457
-12.7116
-12.6767
-12.6406
-12.603
-12.5634
-12.5212
-12.4759
-12.4265
-12.3722
-12.3115
-12.2426
-12.1634
-12.0706
-11.96
-11.8262
-11.6618
-11.4577
-11.2035
-10.889
-10.5083
-10.0763
-9.67319
-9.48184
-17.2453
-16.4916
-15.7593
-15.1466
-14.6692
-14.3131
-14.0488
-13.8494
-13.6953
-13.5732
-13.4736
-13.3903
-13.3189
-13.2565
-13.2008
-13.1504
-13.1042
-13.0613
-13.0212
-12.9831
-12.9468
-12.9119
-12.8779
-12.8447
-12.8118
-12.779
-12.746
-12.7126
-12.6784
-12.6431
-12.6062
-12.5675
-12.5263
-12.482
-12.4339
-12.381
-12.3218
-12.2547
-12.177
-12.0854
-11.9748
-11.8381
-11.6652
-11.4413
-11.1457
-10.7503
-10.2245
-9.5572
-8.77043
-7.956
-20.0957
-17.5035
-16.0972
-15.2262
-14.6336
-14.235
-13.9639
-13.7714
-13.6284
-13.5175
-13.4279
-13.3529
-13.2884
-13.2315
-13.1802
-13.1335
-13.0902
-13.0498
-13.0117
-12.9754
-12.9406
-12.907
-12.8743
-12.8421
-12.8103
-12.7786
-12.7467
-12.7143
-12.6812
-12.6471
-12.6115
-12.5743
-12.5348
-12.4925
-12.4468
-12.3968
-12.3413
-12.2787
-12.2067
-12.122
-12.0196
-11.8922
-11.728
-11.5085
-11.2029
-10.7602
-10.11
-9.16652
-7.67476
-4.96832
-24.9706
-18.5935
-15.9435
-14.8649
-14.2879
-13.9499
-13.7421
-13.6024
-13.4999
-13.419
-13.3517
-13.2933
-13.2412
-13.1936
-13.1496
-13.1085
-13.0697
-13.0329
-12.9978
-12.9641
-12.9315
-12.8999
-12.869
-12.8385
-12.8083
-12.7782
-12.7478
-12.7171
-12.6857
-12.6534
-12.6199
-12.5849
-12.5481
-12.509
-12.4673
-12.4222
-12.3731
-12.3187
-12.2578
-12.1879
-12.1057
-12.0058
-11.8791
-11.7091
-11.4638
-11.0787
-10.4364
-9.26358
-6.49817
0.000369387
)
;

boundaryField
{
    movingWallTop
    {
        type            zeroGradient;
    }
    movingWallBottom
    {
        type            zeroGradient;
    }
    fixedWalls
    {
        type            zeroGradient;
    }
    frontAndBack
    {
        type            empty;
    }
}


// ************************************************************************* //
