/*--------------------------------*- C++ -*----------------------------------*\
  =========                 |
  \\      /  F ield         | OpenFOAM: The Open Source CFD Toolbox
   \\    /   O peration     | Website:  https://openfoam.org
    \\  /    A nd           | Version:  7
     \\/     M anipulation  |
\*---------------------------------------------------------------------------*/
FoamFile
{
    version     2.0;
    format      ascii;
    class       surfaceScalarField;
    location    "0.072";
    object      phi;
}
// * * * * * * * * * * * * * * * * * * * * * * * * * * * * * * * * * * * * * //

dimensions      [0 3 -1 0 0 0 0];

internalField   nonuniform List<scalar> 
4900
(
1.13534e-09
-1.14645e-09
2.31124e-09
-1.17587e-09
2.37936e-09
-6.81094e-11
9.36647e-10
1.44271e-09
-2.09565e-09
3.0323e-09
-6.63362e-09
4.53798e-09
-1.2513e-08
5.87939e-09
-1.95335e-08
7.0205e-09
-2.74817e-08
7.94822e-09
-3.61427e-08
8.66098e-09
-4.53063e-08
9.16353e-09
-5.47705e-08
9.46426e-09
-6.43443e-08
9.57372e-09
-7.3848e-08
9.50378e-09
-8.31151e-08
9.26705e-09
-9.19917e-08
8.87659e-09
-1.00337e-07
8.34569e-09
-1.08025e-07
7.68775e-09
-1.14941e-07
6.91626e-09
-1.20986e-07
6.04475e-09
-1.26073e-07
5.08687e-09
-1.30129e-07
4.0564e-09
-1.33097e-07
2.96734e-09
-1.34931e-07
1.83399e-09
-1.35602e-07
6.70976e-10
-1.35095e-07
-5.06624e-10
-1.33412e-07
-1.68329e-09
-1.30569e-07
-2.84303e-09
-1.26599e-07
-3.96937e-09
-1.21554e-07
-5.04541e-09
-1.155e-07
-6.05392e-09
-1.08523e-07
-6.97742e-09
-1.00724e-07
-7.79837e-09
-9.22249e-08
-8.49933e-09
-8.31617e-08
-9.06325e-09
-7.3688e-08
-9.47368e-09
-6.39729e-08
-9.7151e-09
-5.41996e-08
-9.77329e-09
-4.45639e-08
-9.63569e-09
-3.5272e-08
-9.29185e-09
-2.65379e-08
-8.73411e-09
-1.85796e-08
-7.95836e-09
-1.1614e-08
-6.96551e-09
-5.8501e-09
-5.76395e-09
-1.47545e-09
-4.37464e-09
1.36724e-09
-2.84269e-09
2.62297e-09
-1.25573e-09
2.3923e-09
2.30652e-10
1.13776e-09
1.2545e-09
1.13773e-09
1.18322e-09
-2.32966e-09
1.32628e-09
-1.31892e-09
-1.22399e-09
2.48217e-09
-7.24559e-09
7.46433e-09
-1.69745e-08
1.27613e-08
-3.03021e-08
1.78656e-08
-4.69139e-08
2.24911e-08
-6.63775e-08
2.64841e-08
-8.81977e-08
2.97685e-08
-1.11851e-07
3.23146e-08
-1.36809e-07
3.41217e-08
-1.62552e-07
3.52069e-08
-1.88577e-07
3.55992e-08
-2.14409e-07
3.53352e-08
-2.39599e-07
3.44567e-08
-2.6373e-07
3.30083e-08
-2.86422e-07
3.10373e-08
-3.07326e-07
2.8592e-08
-3.26132e-07
2.57219e-08
-3.42564e-07
2.24774e-08
-3.56387e-07
1.89095e-08
-3.67401e-07
1.50702e-08
-3.75446e-07
1.10124e-08
-3.80402e-07
6.79027e-09
-3.8219e-07
2.45915e-09
-3.80773e-07
-1.92403e-09
-3.76156e-07
-6.30076e-09
-3.68388e-07
-1.0611e-08
-3.57564e-07
-1.47931e-08
-3.43825e-07
-1.87843e-08
-3.27358e-07
-2.25206e-08
-3.08398e-07
-2.59379e-08
-2.87224e-07
-2.89718e-08
-2.64165e-07
-3.15591e-08
-2.3959e-07
-3.36383e-08
-2.13912e-07
-3.51511e-08
-1.87584e-07
-3.60431e-08
-1.61091e-07
-3.62659e-08
-1.34949e-07
-3.57781e-08
-1.09692e-07
-3.45484e-08
-8.58689e-08
-3.25576e-08
-6.40243e-08
-2.9803e-08
-4.46855e-08
-2.63043e-08
-2.83364e-08
-2.21131e-08
-1.5381e-08
-1.733e-08
-6.09001e-09
-1.21337e-08
-5.14505e-10
-6.83121e-09
1.66412e-09
-1.94791e-09
1.266e-09
1.6527e-09
2.40371e-09
1.25454e-10
-2.4551e-09
-2.3783e-09
1.18483e-09
-9.10026e-09
9.20413e-09
-2.08413e-08
1.92053e-08
-3.78483e-08
2.97683e-08
-5.99765e-08
3.99937e-08
-8.68106e-08
4.93253e-08
-1.17762e-07
5.74356e-08
-1.52137e-07
6.41438e-08
-1.89187e-07
6.93642e-08
-2.28139e-07
7.30736e-08
-2.68223e-07
7.52913e-08
-3.08689e-07
7.60648e-08
-3.48815e-07
7.54614e-08
-3.8792e-07
7.35615e-08
-4.25367e-07
7.04551e-08
-4.60568e-07
6.62381e-08
-4.92987e-07
6.10114e-08
-5.22144e-07
5.48789e-08
-5.47614e-07
4.79472e-08
-5.6903e-07
4.03254e-08
-5.86084e-07
3.21245e-08
-5.9853e-07
2.34582e-08
-6.06183e-07
1.44428e-08
-6.08921e-07
5.19744e-09
-6.06689e-07
-4.1557e-09
-5.99499e-07
-1.34912e-08
-5.87429e-07
-2.26807e-08
-5.70629e-07
-3.15928e-08
-5.4932e-07
-4.00938e-08
-5.23792e-07
-4.80483e-08
-4.94409e-07
-5.53208e-08
-4.61605e-07
-6.17762e-08
-4.25881e-07
-6.72823e-08
-3.87808e-07
-7.17117e-08
-3.48015e-07
-7.49439e-08
-3.0719e-07
-7.68687e-08
-2.66066e-07
-7.73893e-08
-2.25418e-07
-7.64262e-08
-1.86044e-07
-7.39226e-08
-1.48751e-07
-6.98503e-08
-1.14336e-07
-6.42188e-08
-8.35519e-08
-5.70878e-08
-5.70789e-08
-4.85861e-08
-3.5468e-08
-3.8941e-08
-1.90753e-08
-2.85263e-08
-7.96803e-09
-1.79386e-08
-1.81118e-09
-8.10479e-09
2.9269e-10
-4.51129e-10
2.6964e-09
-1.34339e-09
-1.11171e-09
-7.28646e-09
7.1279e-09
-1.90369e-08
2.09546e-08
-3.71997e-08
3.73681e-08
-6.19081e-08
5.44767e-08
-9.29189e-08
7.10045e-08
-1.29708e-07
8.61143e-08
-1.71554e-07
9.92819e-08
-2.17608e-07
1.10197e-07
-2.66942e-07
1.18699e-07
-3.18595e-07
1.24726e-07
-3.71596e-07
1.28293e-07
-4.24993e-07
1.29462e-07
-4.77866e-07
1.28334e-07
-5.29339e-07
1.25034e-07
-5.7859e-07
1.19707e-07
-6.24859e-07
1.12508e-07
-6.67452e-07
1.03604e-07
-7.05742e-07
9.31687e-08
-7.39176e-07
8.13816e-08
-7.67277e-07
6.84265e-08
-7.89644e-07
5.44918e-08
-8.05957e-07
3.97706e-08
-8.15975e-07
2.44607e-08
-8.19542e-07
8.76458e-09
-8.16588e-07
-7.11004e-09
-8.07129e-07
-2.29503e-08
-7.91271e-07
-3.85385e-08
-7.69211e-07
-5.36525e-08
-7.41238e-07
-6.80668e-08
-7.07733e-07
-8.15538e-08
-6.69168e-07
-9.38856e-08
-6.26107e-07
-1.04837e-07
-5.79201e-07
-1.14188e-07
-5.29186e-07
-1.21727e-07
-4.76873e-07
-1.27257e-07
-4.23144e-07
-1.30598e-07
-3.68939e-07
-1.31595e-07
-3.15241e-07
-1.30124e-07
-2.63061e-07
-1.26103e-07
-2.13414e-07
-1.19497e-07
-1.67294e-07
-1.1034e-07
-1.25634e-07
-9.87474e-08
-8.92701e-08
-8.495e-08
-5.88812e-08
-6.93299e-08
-3.49241e-08
-5.24834e-08
-1.75518e-08
-3.53108e-08
-6.52327e-09
-1.91334e-08
-1.11958e-09
-5.85481e-09
1.57683e-09
-2.91538e-09
1.80368e-09
-1.26398e-08
1.68523e-08
-2.98446e-08
3.81595e-08
-5.48189e-08
6.23423e-08
-8.74829e-08
8.71407e-08
-1.27435e-07
1.10957e-07
-1.74015e-07
1.32694e-07
-2.26367e-07
1.51634e-07
-2.835e-07
1.6733e-07
-3.44337e-07
1.79536e-07
-4.07757e-07
1.88146e-07
-4.72627e-07
1.93162e-07
-5.37827e-07
1.94662e-07
-6.02273e-07
1.9278e-07
-6.64927e-07
1.87689e-07
-7.24815e-07
1.79594e-07
-7.8103e-07
1.68723e-07
-8.32744e-07
1.55317e-07
-8.79208e-07
1.39633e-07
-9.19762e-07
1.21936e-07
-9.53834e-07
1.02498e-07
-9.80944e-07
8.16016e-08
-1.00071e-06
5.95345e-08
-1.01284e-06
3.65922e-08
-1.01715e-06
1.30776e-08
-1.01356e-06
-1.06988e-08
-1.00209e-06
-3.44194e-08
-9.82873e-07
-5.77596e-08
-9.56137e-07
-8.03886e-08
-9.22233e-07
-1.01971e-07
-8.81616e-07
-1.22171e-07
-8.34853e-07
-1.40649e-07
-7.82615e-07
-1.57075e-07
-7.25679e-07
-1.71123e-07
-6.6492e-07
-1.82487e-07
-6.01299e-07
-1.90877e-07
-5.35862e-07
-1.96035e-07
-4.69717e-07
-1.9774e-07
-4.04022e-07
-1.95818e-07
-3.39965e-07
-1.9016e-07
-2.78733e-07
-1.80729e-07
-2.21484e-07
-1.67589e-07
-1.69309e-07
-1.50923e-07
-1.23185e-07
-1.31074e-07
-8.39247e-08
-1.0859e-07
-5.21167e-08
-8.42913e-08
-2.80612e-08
-5.93663e-08
-1.17128e-08
-3.54818e-08
-2.63819e-09
-1.49294e-08
-1.06136e-09
-4.46702e-09
6.2707e-09
-1.80458e-08
3.0431e-08
-4.0856e-08
6.09697e-08
-7.28047e-08
9.4291e-08
-1.13537e-07
1.27873e-07
-1.62444e-07
1.59864e-07
-2.18697e-07
1.88947e-07
-2.81291e-07
2.14228e-07
-3.49094e-07
2.35133e-07
-4.20889e-07
2.51331e-07
-4.95414e-07
2.62671e-07
-5.71395e-07
2.69143e-07
-6.4757e-07
2.70838e-07
-7.22715e-07
2.67925e-07
-7.95659e-07
2.60633e-07
-8.65297e-07
2.49232e-07
-9.306e-07
2.34026e-07
-9.90628e-07
2.15345e-07
-1.04453e-06
1.93535e-07
-1.09155e-06
1.68958e-07
-1.13104e-06
1.4199e-07
-1.16246e-06
1.13017e-07
-1.18536e-06
8.24362e-08
-1.19942e-06
5.06539e-08
-1.20443e-06
1.80875e-08
-1.2003e-06
-1.48355e-08
-1.18704e-06
-4.76778e-08
-1.1648e-06
-7.99932e-08
-1.13386e-06
-1.11328e-07
-1.09461e-06
-1.41222e-07
-1.04757e-06
-1.69213e-07
-9.9338e-07
-1.94841e-07
-9.32801e-07
-2.17653e-07
-8.66717e-07
-2.37208e-07
-7.96116e-07
-2.53088e-07
-7.2209e-07
-2.64903e-07
-6.4582e-07
-2.72306e-07
-5.68557e-07
-2.75002e-07
-4.91609e-07
-2.72766e-07
-4.16315e-07
-2.65455e-07
-3.44011e-07
-2.53032e-07
-2.76008e-07
-2.35592e-07
-2.13541e-07
-2.13389e-07
-1.57736e-07
-1.86879e-07
-1.09555e-07
-1.56771e-07
-6.97496e-08
-1.24096e-07
-3.88196e-08
-9.02962e-08
-1.69772e-08
-5.73243e-08
-4.14346e-09
-2.77631e-08
-5.20481e-09
-5.94863e-09
1.22193e-08
-2.33232e-08
4.78056e-08
-5.1727e-08
8.93735e-08
-9.06669e-08
1.33231e-07
-1.39479e-07
1.76685e-07
-1.97312e-07
2.17696e-07
-2.63139e-07
2.54774e-07
-3.3579e-07
2.86879e-07
-4.13983e-07
3.13326e-07
-4.96361e-07
3.33709e-07
-5.81528e-07
3.47839e-07
-6.68082e-07
3.55697e-07
-7.54636e-07
3.57392e-07
-8.39845e-07
3.53134e-07
-9.22421e-07
3.43209e-07
-1.00115e-06
3.2796e-07
-1.0749e-06
3.07776e-07
-1.14263e-06
2.83079e-07
-1.20341e-06
2.54316e-07
-1.25641e-06
2.21958e-07
-1.30091e-06
1.8649e-07
-1.33631e-06
1.48414e-07
-1.36212e-06
1.08248e-07
-1.37799e-06
6.65205e-08
-1.38368e-06
2.37746e-08
-1.37908e-06
-1.94333e-08
-1.36422e-06
-6.25344e-08
-1.33927e-06
-1.04948e-07
-1.30451e-06
-1.46086e-07
-1.26038e-06
-1.8535e-07
-1.20745e-06
-2.22142e-07
-1.14643e-06
-2.55865e-07
-1.07815e-06
-2.85933e-07
-1.00358e-06
-3.11778e-07
-9.23806e-07
-3.32859e-07
-8.40033e-07
-3.48676e-07
-7.53554e-07
-3.58785e-07
-6.65748e-07
-3.62809e-07
-5.78052e-07
-3.60461e-07
-4.91942e-07
-3.51565e-07
-4.08897e-07
-3.36077e-07
-3.30369e-07
-3.1412e-07
-2.57746e-07
-2.86013e-07
-1.92307e-07
-2.52318e-07
-1.35188e-07
-2.13891e-07
-8.73349e-08
-1.71949e-07
-4.94816e-08
-1.28149e-07
-2.21329e-08
-8.46729e-08
-5.58451e-09
-4.43115e-08
-1.07893e-08
-7.34963e-09
1.9569e-08
-2.84077e-08
6.88636e-08
-6.23125e-08
1.23278e-07
-1.08179e-07
1.79097e-07
-1.6502e-07
2.33526e-07
-2.31721e-07
2.84397e-07
-3.07037e-07
3.3009e-07
-3.89611e-07
3.69453e-07
-4.78001e-07
4.01716e-07
-5.70706e-07
4.26414e-07
-6.66199e-07
4.43332e-07
-7.62952e-07
4.5245e-07
-8.59465e-07
4.53905e-07
-9.54284e-07
4.47952e-07
-1.04602e-06
4.34942e-07
-1.13336e-06
4.15298e-07
-1.21508e-06
3.895e-07
-1.29007e-06
3.58071e-07
-1.35732e-06
3.21567e-07
-1.41594e-06
2.80573e-07
-1.46514e-06
2.35696e-07
-1.50429e-06
1.87561e-07
-1.53286e-06
1.36814e-07
-1.55045e-06
8.41156e-08
-1.55682e-06
3.0145e-08
-1.55185e-06
-2.44035e-08
-1.53557e-06
-7.88199e-08
-1.50813e-06
-1.3238e-07
-1.46987e-06
-1.84349e-07
-1.42124e-06
-2.33982e-07
-1.36285e-06
-2.80533e-07
-1.29546e-06
-3.23259e-07
-1.21996e-06
-3.61429e-07
-1.1374e-06
-3.94337e-07
-1.04895e-06
-4.21311e-07
-9.55894e-07
-4.41729e-07
-8.5964e-07
-4.55038e-07
-7.61676e-07
-4.60773e-07
-6.63561e-07
-4.58576e-07
-5.66898e-07
-4.48228e-07
-4.73304e-07
-4.29671e-07
-3.84379e-07
-4.03046e-07
-3.01665e-07
-3.68726e-07
-2.26617e-07
-3.27366e-07
-1.6056e-07
-2.79949e-07
-1.0466e-07
-2.27849e-07
-5.99081e-08
-1.72901e-07
-2.71171e-08
-1.17464e-07
-6.94973e-09
-6.44789e-08
-1.7739e-08
-8.67708e-09
2.8246e-08
-3.32955e-08
9.34821e-08
-7.25806e-08
1.62563e-07
-1.25274e-07
2.31791e-07
-1.90066e-07
2.98318e-07
-2.65566e-07
3.59896e-07
-3.50294e-07
4.14819e-07
-4.42695e-07
4.61855e-07
-5.41153e-07
5.00173e-07
-6.44016e-07
5.29276e-07
-7.49622e-07
5.48937e-07
-8.56322e-07
5.5915e-07
-9.62504e-07
5.60088e-07
-1.06661e-06
5.52062e-07
-1.16717e-06
5.35497e-07
-1.26277e-06
5.10903e-07
-1.35213e-06
4.7886e-07
-1.43406e-06
4.39999e-07
-1.50749e-06
3.94992e-07
-1.57146e-06
3.44547e-07
-1.62516e-06
2.89396e-07
-1.6679e-06
2.30298e-07
-1.69912e-06
1.68034e-07
-1.71841e-06
1.03403e-07
-1.72549e-06
3.72276e-08
-1.72024e-06
-2.9653e-08
-1.70268e-06
-9.63796e-08
-1.67298e-06
-1.62076e-07
-1.63148e-06
-2.25854e-07
-1.57865e-06
-2.86812e-07
-1.51513e-06
-3.44048e-07
-1.44173e-06
-3.96663e-07
-1.35939e-06
-4.43773e-07
-1.2692e-06
-4.8452e-07
-1.17242e-06
-5.18092e-07
-1.07042e-06
-5.43735e-07
-9.64677e-07
-5.60776e-07
-8.56801e-07
-5.68649e-07
-7.48461e-07
-5.66916e-07
-6.41388e-07
-5.55302e-07
-5.37337e-07
-5.33722e-07
-4.38061e-07
-5.02321e-07
-3.45273e-07
-4.61514e-07
-2.60612e-07
-4.12027e-07
-1.85613e-07
-3.54948e-07
-1.21682e-07
-2.9178e-07
-7.00803e-08
-2.24502e-07
-3.19315e-08
-1.55613e-07
-8.24734e-09
-8.8163e-08
-2.59864e-08
-9.94467e-09
3.81907e-08
-3.80127e-08
1.2155e-07
-8.25606e-08
2.07111e-07
-1.41979e-07
2.9121e-07
-2.14641e-07
3.7098e-07
-2.98873e-07
4.44129e-07
-3.92954e-07
5.089e-07
-4.95115e-07
5.64016e-07
-6.03558e-07
6.08616e-07
-7.16471e-07
6.4219e-07
-8.32053e-07
6.64519e-07
-9.48533e-07
6.7563e-07
-1.06419e-06
6.75745e-07
-1.17737e-06
6.65246e-07
-1.28652e-06
6.44639e-07
-1.39015e-06
6.14534e-07
-1.4869e-06
5.75616e-07
-1.57554e-06
5.28634e-07
-1.65493e-06
4.74383e-07
-1.72408e-06
4.13698e-07
-1.78213e-06
3.47447e-07
-1.82836e-06
2.76526e-07
-1.86218e-06
2.01855e-07
-1.88316e-06
1.2438e-07
-1.891e-06
4.50706e-08
-1.88557e-06
-3.50829e-08
-1.86688e-06
-1.15067e-07
-1.83511e-06
-1.93847e-07
-1.79059e-06
-2.70374e-07
-1.73382e-06
-3.43584e-07
-1.66546e-06
-4.12411e-07
-1.58633e-06
-4.75791e-07
-1.49742e-06
-5.32676e-07
-1.39989e-06
-5.82051e-07
-1.29504e-06
-6.22948e-07
-1.1843e-06
-6.5447e-07
-1.06927e-06
-6.75813e-07
-9.5162e-07
-6.86294e-07
-8.33154e-07
-6.85383e-07
-7.15724e-07
-6.72731e-07
-6.01232e-07
-6.48214e-07
-4.91591e-07
-6.11963e-07
-3.88693e-07
-5.64411e-07
-2.94382e-07
-5.06338e-07
-2.10418e-07
-4.38912e-07
-1.38459e-07
-3.63739e-07
-8.00467e-08
-2.82915e-07
-3.66111e-08
-1.99048e-07
-9.4934e-09
-1.15281e-07
-3.54798e-08
-1.11679e-08
4.93586e-08
-4.25984e-08
1.52981e-07
-9.23131e-08
2.56826e-07
-1.58371e-07
3.57268e-07
-2.38835e-07
4.51443e-07
-3.3175e-07
5.37044e-07
-4.35142e-07
6.12292e-07
-5.47024e-07
6.75898e-07
-6.65404e-07
7.26996e-07
-7.88304e-07
7.6509e-07
-9.13778e-07
7.89994e-07
-1.03993e-06
8.01784e-07
-1.16494e-06
8.00749e-07
-1.28705e-06
7.87356e-07
-1.40461e-06
7.62207e-07
-1.5161e-06
7.2602e-07
-1.62008e-06
6.79598e-07
-1.71526e-06
6.23813e-07
-1.80047e-06
5.59591e-07
-1.87467e-06
4.87903e-07
-1.93698e-06
4.09754e-07
-1.98664e-06
3.26184e-07
-2.02304e-06
2.38258e-07
-2.04573e-06
1.47069e-07
-2.0544e-06
5.37389e-08
-2.0489e-06
-4.05867e-08
-2.02923e-06
-1.34736e-07
-1.99556e-06
-2.27513e-07
-1.94823e-06
-3.17702e-07
-1.88774e-06
-4.04072e-07
-1.81477e-06
-4.85385e-07
-1.73016e-06
-5.60404e-07
-1.63492e-06
-6.2791e-07
-1.53026e-06
-6.86716e-07
-1.41752e-06
-7.35691e-07
-1.29821e-06
-7.7378e-07
-1.17399e-06
-8.00033e-07
-1.04665e-06
-8.13636e-07
-9.18082e-07
-8.13946e-07
-7.90286e-07
-8.00528e-07
-6.65308e-07
-7.73191e-07
-5.45234e-07
-7.32037e-07
-4.32149e-07
-6.77496e-07
-3.28112e-07
-6.10375e-07
-2.35125e-07
-5.31899e-07
-1.55109e-07
-4.43756e-07
-8.98916e-08
-3.48132e-07
-4.12065e-08
-2.47733e-07
-1.07067e-08
-1.45781e-07
-4.61864e-08
-1.23622e-08
6.17208e-08
-4.70963e-08
1.87715e-07
-1.01912e-07
3.11642e-07
-1.74553e-07
4.29909e-07
-2.62776e-07
5.39666e-07
-3.64346e-07
6.38613e-07
-4.77032e-07
7.24978e-07
-5.98618e-07
7.97484e-07
-7.26914e-07
8.55292e-07
-8.59769e-07
8.97944e-07
-9.95087e-07
9.25312e-07
-1.13085e-06
9.37542e-07
-1.26511e-06
9.35012e-07
-1.39604e-06
9.18287e-07
-1.52192e-06
8.88083e-07
-1.64113e-06
8.45237e-07
-1.75221e-06
7.90679e-07
-1.85381e-06
7.25415e-07
-1.94473e-06
6.50509e-07
-2.0239e-06
5.67073e-07
-2.09041e-06
4.76257e-07
-2.14347e-06
3.79243e-07
-2.18245e-06
2.77246e-07
-2.2069e-06
1.71511e-07
-2.21647e-06
6.33118e-08
-2.21101e-06
-4.60491e-08
-2.1905e-06
-1.55239e-07
-2.15512e-06
-2.62898e-07
-2.10518e-06
-3.6764e-07
-2.04119e-06
-4.68063e-07
-1.96383e-06
-5.62749e-07
-1.87395e-06
-6.50285e-07
-1.77259e-06
-7.29269e-07
-1.66097e-06
-7.98334e-07
-1.54049e-06
-8.5617e-07
-1.41272e-06
-9.01551e-07
-1.27939e-06
-9.33364e-07
-1.14238e-06
-9.50646e-07
-1.0037e-06
-9.52623e-07
-8.65481e-07
-9.38746e-07
-7.2993e-07
-9.08743e-07
-5.99311e-07
-8.62656e-07
-4.75917e-07
-8.0089e-07
-3.62037e-07
-7.24255e-07
-2.59926e-07
-6.3401e-07
-1.71779e-07
-5.31902e-07
-9.9717e-08
-4.20194e-07
-4.57748e-08
-3.01675e-07
-1.19062e-08
-1.79649e-07
-5.80926e-08
-1.35417e-08
7.52624e-08
-5.15495e-08
2.25723e-07
-1.11435e-07
3.71528e-07
-1.90635e-07
5.09109e-07
-2.86606e-07
6.35637e-07
-3.96828e-07
7.48836e-07
-5.18813e-07
8.46963e-07
-6.5011e-07
9.28781e-07
-7.88321e-07
9.93503e-07
-9.31117e-07
1.04074e-06
-1.07625e-06
1.07044e-06
-1.22157e-06
1.08286e-06
-1.36502e-06
1.07847e-06
-1.50469e-06
1.05796e-06
-1.63878e-06
1.02217e-06
-1.76562e-06
9.72078e-07
-1.88369e-06
9.08751e-07
-1.99161e-06
8.33338e-07
-2.08815e-06
7.47049e-07
-2.17222e-06
6.5114e-07
-2.24287e-06
5.46909e-07
-2.29932e-06
4.35687e-07
-2.34091e-06
3.18839e-07
-2.36716e-06
1.97761e-07
-2.37773e-06
7.38798e-08
-2.37243e-06
-5.13446e-08
-2.35125e-06
-1.76419e-07
-2.31433e-06
-2.99817e-07
-2.26199e-06
-4.19984e-07
-2.19471e-06
-5.35339e-07
-2.11318e-06
-6.44285e-07
-2.01824e-06
-7.45221e-07
-1.91095e-06
-8.36556e-07
-1.79256e-06
-9.16731e-07
-1.66448e-06
-9.84246e-07
-1.52835e-06
-1.03768e-06
-1.38596e-06
-1.07575e-06
-1.23928e-06
-1.09732e-06
-1.09045e-06
-1.10145e-06
-9.41725e-07
-1.08747e-06
-7.95477e-07
-1.05499e-06
-6.54166e-07
-1.00397e-06
-5.20302e-07
-9.34754e-07
-3.96416e-07
-8.4814e-07
-2.85031e-07
-7.45395e-07
-1.8863e-07
-6.28304e-07
-1.09631e-07
-4.99193e-07
-5.03743e-08
-3.60932e-07
-1.31107e-08
-2.16913e-07
-7.12033e-08
-1.47192e-08
8.99817e-08
-5.59988e-08
2.67002e-07
-1.20958e-07
4.36486e-07
-2.06727e-07
5.94878e-07
-3.10466e-07
7.39376e-07
-4.29368e-07
8.67738e-07
-5.60678e-07
9.78273e-07
-7.01707e-07
1.06981e-06
-8.49846e-07
1.14164e-06
-1.00258e-06
1.19347e-06
-1.1575e-06
1.22537e-06
-1.31233e-06
1.23769e-06
-1.46491e-06
1.23105e-06
-1.61323e-06
1.20628e-06
-1.75543e-06
1.16437e-06
-1.88979e-06
1.10644e-06
-2.01475e-06
1.03371e-06
-2.12889e-06
9.47481e-07
-2.23096e-06
8.49119e-07
-2.31985e-06
7.40032e-07
-2.39461e-06
6.21666e-07
-2.45443e-06
4.95504e-07
-2.49865e-06
3.6306e-07
-2.52677e-06
2.25879e-07
-2.53843e-06
8.55414e-08
-2.53344e-06
-5.63379e-08
-2.51175e-06
-1.98106e-07
-2.47349e-06
-3.38074e-07
-2.41896e-06
-4.74513e-07
-2.34863e-06
-6.05668e-07
-2.26316e-06
-7.29755e-07
-2.1634e-06
-8.44981e-07
-2.0504e-06
-9.49557e-07
-1.92541e-06
-1.04172e-06
-1.78989e-06
-1.11977e-06
-1.6455e-06
-1.18207e-06
-1.49411e-06
-1.22714e-06
-1.33778e-06
-1.25365e-06
-1.17874e-06
-1.26049e-06
-1.01941e-06
-1.24681e-06
-8.62325e-07
-1.21208e-06
-7.10146e-07
-1.15615e-06
-5.65613e-07
-1.07929e-06
-4.31517e-07
-9.82236e-07
-3.1066e-07
-8.66252e-07
-2.05825e-07
-7.33139e-07
-1.19742e-07
-5.85276e-07
-5.5062e-08
-4.25612e-07
-1.43374e-08
-2.57637e-07
-8.55407e-08
-1.59063e-08
1.05888e-07
-6.04816e-08
3.11577e-07
-1.30549e-07
5.06554e-07
-2.22935e-07
6.87264e-07
-3.34492e-07
8.50933e-07
-4.62125e-07
9.9537e-07
-6.02807e-07
1.11896e-06
-7.53603e-07
1.22061e-06
-9.11684e-07
1.29972e-06
-1.07435e-06
1.35614e-06
-1.23903e-06
1.39005e-06
-1.40331e-06
1.40197e-06
-1.56494e-06
1.39267e-06
-1.72181e-06
1.36315e-06
-1.87201e-06
1.31456e-06
-2.01375e-06
1.24819e-06
-2.14546e-06
1.16542e-06
-2.2657e-06
1.06772e-06
-2.37319e-06
9.56612e-07
-2.46682e-06
8.33662e-07
-2.54563e-06
7.00472e-07
-2.6088e-06
5.58672e-07
-2.65566e-06
4.09925e-07
-2.68571e-06
2.55925e-07
-2.69857e-06
9.84004e-08
-2.69402e-06
-6.08829e-08
-2.67201e-06
-2.20117e-07
-2.63264e-06
-3.77449e-07
-2.57617e-06
-5.30984e-07
-2.50305e-06
-6.78787e-07
-2.41391e-06
-8.18889e-07
-2.3096e-06
-9.49298e-07
-2.19113e-06
-1.06802e-06
-2.05977e-06
-1.17308e-06
-1.91699e-06
-1.26255e-06
-1.76449e-06
-1.33458e-06
-1.60418e-06
-1.38745e-06
-1.43821e-06
-1.41962e-06
-1.26893e-06
-1.42976e-06
-1.0989e-06
-1.41684e-06
-9.30825e-07
-1.38015e-06
-7.67583e-07
-1.31939e-06
-6.12155e-07
-1.23471e-06
-4.67602e-07
-1.12679e-06
-3.37027e-07
-9.96828e-07
-2.23525e-07
-8.4664e-07
-1.30155e-07
-6.78646e-07
-5.98926e-08
-4.95874e-07
-1.56027e-08
-3.01927e-07
-1.01143e-07
-1.7113e-08
1.23001e-07
-6.50313e-08
3.59496e-07
-1.40274e-07
5.81797e-07
-2.39353e-07
7.86343e-07
-3.58809e-07
9.70389e-07
-4.95247e-07
1.13181e-06
-6.45361e-07
1.26907e-06
-8.05963e-07
1.38121e-06
-9.73999e-07
1.46776e-06
-1.14657e-06
1.52871e-06
-1.32096e-06
1.56444e-06
-1.49461e-06
1.57562e-06
-1.66517e-06
1.56323e-06
-1.83045e-06
1.52844e-06
-1.98848e-06
1.47259e-06
-2.13745e-06
1.39716e-06
-2.27574e-06
1.30371e-06
-2.4019e-06
1.19389e-06
-2.51467e-06
1.06938e-06
-2.61292e-06
9.3191e-07
-2.69569e-06
7.83239e-07
-2.76216e-06
6.25146e-07
-2.81167e-06
4.59438e-07
-2.8437e-06
2.87953e-07
-2.85786e-06
1.12561e-07
-2.85392e-06
-6.48242e-08
-2.83179e-06
-2.42246e-07
-2.79154e-06
-4.17697e-07
-2.73341e-06
-5.89116e-07
-2.6578e-06
-7.54392e-07
-2.56532e-06
-9.11368e-07
-2.45677e-06
-1.05785e-06
-2.33315e-06
-1.19164e-06
-2.1957e-06
-1.31053e-06
-2.0459e-06
-1.41235e-06
-1.88547e-06
-1.49501e-06
-1.71638e-06
-1.55655e-06
-1.54084e-06
-1.59516e-06
-1.36131e-06
-1.60929e-06
-1.1805e-06
-1.59766e-06
-1.00129e-06
-1.55936e-06
-8.26783e-07
-1.4939e-06
-6.6021e-07
-1.40129e-06
-5.04922e-07
-1.28208e-06
-3.64336e-07
-1.13741e-06
-2.41884e-07
-9.69092e-07
-1.40971e-07
-7.79559e-07
-6.4918e-08
-5.71927e-07
-1.6922e-08
-3.49923e-07
-1.18065e-07
-1.83483e-08
1.41349e-07
-6.96784e-08
4.10826e-07
-1.50191e-07
6.6231e-07
-2.56069e-07
8.92221e-07
-3.83529e-07
1.09785e-06
-5.28864e-07
1.27714e-06
-6.8848e-07
1.42868e-06
-8.58923e-07
1.55165e-06
-1.03691e-06
1.64575e-06
-1.21936e-06
1.71116e-06
-1.40336e-06
1.74844e-06
-1.58625e-06
1.75851e-06
-1.76557e-06
1.74254e-06
-1.93906e-06
1.70193e-06
-2.1047e-06
1.63822e-06
-2.26065e-06
1.55311e-06
-2.40528e-06
1.44834e-06
-2.53716e-06
1.32576e-06
-2.65499e-06
1.18721e-06
-2.75768e-06
1.0346e-06
-2.84428e-06
8.69838e-07
-2.91398e-06
6.94846e-07
-2.96612e-06
5.11575e-07
-3.00016e-06
3.21999e-07
-3.01573e-06
1.28125e-07
-3.01255e-06
-6.79981e-08
-2.99053e-06
-2.64272e-07
-2.94968e-06
-4.58541e-07
-2.89021e-06
-6.48586e-07
-2.81248e-06
-8.32124e-07
-2.71704e-06
-1.00681e-06
-2.60464e-06
-1.17026e-06
-2.47624e-06
-1.32003e-06
-2.33307e-06
-1.4537e-06
-2.17657e-06
-1.56884e-06
-2.00849e-06
-1.6631e-06
-1.83081e-06
-1.73423e-06
-1.64582e-06
-1.78015e-06
-1.45609e-06
-1.79902e-06
-1.26445e-06
-1.7893e-06
-1.07399e-06
-1.74982e-06
-8.88017e-07
-1.67987e-06
-7.10038e-07
-1.57927e-06
-5.43709e-07
-1.44841e-06
-3.92782e-07
-1.28834e-06
-2.61049e-07
-1.10082e-06
-1.52285e-07
-8.88323e-07
-7.01871e-08
-6.54025e-07
-1.83096e-08
-4.01801e-07
-1.36375e-07
-1.96202e-08
1.60969e-07
-7.44504e-08
4.65656e-07
-1.60352e-07
7.48211e-07
-2.73161e-07
1.00503e-06
-4.08752e-07
1.23344e-06
-5.6309e-07
1.43148e-06
-7.32277e-07
1.59787e-06
-9.12589e-07
1.73196e-06
-1.10051e-06
1.83367e-06
-1.29273e-06
1.90338e-06
-1.48622e-06
1.94193e-06
-1.67815e-06
1.95045e-06
-1.86599e-06
1.93038e-06
-2.04741e-06
1.88335e-06
-2.22036e-06
1.81117e-06
-2.38297e-06
1.71572e-06
-2.53363e-06
1.599e-06
-2.6709e-06
1.46302e-06
-2.79352e-06
1.30984e-06
-2.90042e-06
1.1415e-06
-2.99066e-06
9.60077e-07
-3.06345e-06
7.67641e-07
-3.11815e-06
5.66275e-07
-3.15423e-06
3.58078e-07
-3.17129e-06
1.45184e-07
-3.16905e-06
-7.02351e-08
-3.14738e-06
-2.8595e-07
-3.10625e-06
-4.99667e-07
-3.04582e-06
-7.09019e-07
-2.96638e-06
-9.11558e-07
-2.86843e-06
-1.10476e-06
-2.75266e-06
-1.28603e-06
-2.61997e-06
-1.45272e-06
-2.47153e-06
-1.60214e-06
-2.30876e-06
-1.73161e-06
-2.13339e-06
-1.83847e-06
-1.94742e-06
-1.92019e-06
-1.7532e-06
-1.97437e-06
-1.55338e-06
-1.99884e-06
-1.35094e-06
-1.99174e-06
-1.14913e-06
-1.95162e-06
-9.51515e-07
-1.87749e-06
-7.6187e-07
-1.76891e-06
-5.84176e-07
-1.6261e-06
-4.22544e-07
-1.44997e-06
-2.81156e-07
-1.24221e-06
-1.64189e-07
-1.00529e-06
-7.57469e-08
-7.42468e-07
-1.97792e-08
-4.57769e-07
-1.56154e-07
-2.09364e-08
1.81906e-07
-7.93733e-08
5.24093e-07
-1.70807e-07
8.39645e-07
-2.90701e-07
1.12492e-06
-4.34566e-07
1.3773e-06
-5.9802e-07
1.59494e-06
-7.76844e-07
1.7767e-06
-9.67029e-07
1.92215e-06
-1.16481e-06
2.03145e-06
-1.36668e-06
2.10526e-06
-1.56944e-06
2.14468e-06
-1.77015e-06
2.15116e-06
-1.96617e-06
2.1264e-06
-2.15515e-06
2.07233e-06
-2.33499e-06
1.99101e-06
-2.50384e-06
1.88458e-06
-2.6601e-06
1.75526e-06
-2.80235e-06
1.60528e-06
-2.92938e-06
1.43687e-06
-3.04015e-06
1.25227e-06
-3.13376e-06
1.05369e-06
-3.20946e-06
8.4334e-07
-3.26662e-06
6.23428e-07
-3.30471e-06
3.96172e-07
-3.32334e-06
1.63813e-07
-3.32221e-06
-7.13632e-08
-3.30115e-06
-3.07014e-07
-3.26009e-06
-5.40721e-07
-3.19913e-06
-7.69982e-07
-3.11849e-06
-9.92197e-07
-3.01859e-06
-1.20467e-06
-2.90002e-06
-1.4046e-06
-2.76363e-06
-1.58911e-06
-2.61051e-06
-1.75527e-06
-2.44202e-06
-1.9001e-06
-2.25985e-06
-2.02064e-06
-2.06602e-06
-2.11403e-06
-1.86289e-06
-2.1775e-06
-1.65319e-06
-2.20853e-06
-1.44003e-06
-2.2049e-06
-1.22686e-06
-2.1648e-06
-1.01746e-06
-2.08689e-06
-8.15901e-07
-1.97047e-06
-6.26512e-07
-1.81549e-06
-4.5379e-07
-1.6227e-06
-3.02335e-07
-1.39367e-06
-1.76769e-07
-1.13085e-06
-8.16423e-08
-8.37595e-07
-2.13441e-08
-5.18067e-07
-1.77498e-07
-2.23044e-08
2.0421e-07
-8.44721e-08
5.86261e-07
-1.81603e-07
9.36776e-07
-3.08759e-07
1.25208e-06
-4.61056e-07
1.5296e-06
-6.3374e-07
1.76762e-06
-8.22253e-07
1.96521e-06
-1.02228e-06
2.12218e-06
-1.22981e-06
2.23897e-06
-1.44113e-06
2.31658e-06
-1.65286e-06
2.35641e-06
-1.86197e-06
2.36026e-06
-2.06573e-06
2.33017e-06
-2.26176e-06
2.26836e-06
-2.44795e-06
2.1772e-06
-2.62249e-06
2.05911e-06
-2.78378e-06
1.91655e-06
-2.93048e-06
1.75198e-06
-3.06142e-06
1.56782e-06
-3.17563e-06
1.36647e-06
-3.27225e-06
1.15031e-06
-3.35058e-06
9.21668e-07
-3.41001e-06
6.82863e-07
-3.45006e-06
4.36217e-07
-3.47031e-06
1.84066e-07
-3.47046e-06
-7.12119e-08
-3.4503e-06
-3.27177e-07
-3.40971e-06
-5.81308e-07
-3.34871e-06
-8.3098e-07
-3.26746e-06
-1.07346e-06
-3.16625e-06
-1.30587e-06
-3.0456e-06
-1.52525e-06
-2.90624e-06
-1.72847e-06
-2.74917e-06
-1.91234e-06
-2.57566e-06
-2.0736e-06
-2.38734e-06
-2.20896e-06
-2.18621e-06
-2.31516e-06
-1.97463e-06
-2.38908e-06
-1.7554e-06
-2.42776e-06
-1.53173e-06
-2.42857e-06
-1.30725e-06
-2.38928e-06
-1.08597e-06
-2.30816e-06
-8.72292e-07
-2.18415e-06
-6.70886e-07
-2.01689e-06
-4.86672e-07
-1.80691e-06
-3.2471e-07
-1.55563e-06
-1.90109e-07
-1.26546e-06
-8.79177e-08
-9.39786e-07
-2.30175e-08
-5.82967e-07
-2.00516e-07
-2.37318e-08
2.27942e-07
-8.97729e-08
6.52302e-07
-1.92789e-07
1.03979e-06
-3.27402e-07
1.38669e-06
-4.88299e-07
1.6905e-06
-6.70325e-07
1.94964e-06
-8.68555e-07
2.16344e-06
-1.07836e-06
2.33199e-06
-1.29546e-06
2.45607e-06
-1.51592e-06
2.53704e-06
-1.73623e-06
2.57672e-06
-1.95323e-06
2.57726e-06
-2.16415e-06
2.54109e-06
-2.36658e-06
2.47079e-06
-2.55843e-06
2.36905e-06
-2.73792e-06
2.2386e-06
-2.90353e-06
2.08217e-06
-3.05399e-06
1.90243e-06
-3.18821e-06
1.70204e-06
-3.30528e-06
1.48354e-06
-3.40444e-06
1.24947e-06
-3.48503e-06
1.00225e-06
-3.54649e-06
7.44331e-07
-3.58837e-06
4.78096e-07
-3.61027e-06
2.05964e-07
-3.61186e-06
-6.96185e-08
-3.5929e-06
-3.46137e-07
-3.55323e-06
-6.20987e-07
-3.49276e-06
-8.91447e-07
-3.41156e-06
-1.15466e-06
-3.30982e-06
-1.40761e-06
-3.18793e-06
-1.64714e-06
-3.04649e-06
-1.86991e-06
-2.88636e-06
-2.07247e-06
-2.70872e-06
-2.25124e-06
-2.51509e-06
-2.40259e-06
-2.3074e-06
-2.52285e-06
-2.08801e-06
-2.60847e-06
-1.85974e-06
-2.65603e-06
-1.6259e-06
-2.66242e-06
-1.39027e-06
-2.6249e-06
-1.15713e-06
-2.54131e-06
-9.31164e-07
-2.41012e-06
-7.17441e-07
-2.23062e-06
-5.21331e-07
-2.00302e-06
-3.48398e-07
-1.72856e-06
-2.04291e-07
-1.40956e-06
-9.4617e-08
-1.04946e-06
-2.48126e-08
-6.52772e-07
-2.25328e-07
-2.52271e-08
2.53169e-07
-9.53041e-08
7.22379e-07
-2.04417e-07
1.14891e-06
-3.46703e-07
1.52898e-06
-5.16378e-07
1.86017e-06
-7.07846e-07
2.14111e-06
-9.1579e-07
2.37138e-06
-1.13524e-06
2.55144e-06
-1.36164e-06
2.68247e-06
-1.59086e-06
2.76626e-06
-1.8192e-06
2.80506e-06
-2.04344e-06
2.8015e-06
-2.26076e-06
2.75841e-06
-2.46875e-06
2.67878e-06
-2.66538e-06
2.56568e-06
-2.84892e-06
2.42215e-06
-3.01796e-06
2.25121e-06
-3.17132e-06
2.05579e-06
-3.30801e-06
1.83873e-06
-3.42723e-06
1.60276e-06
-3.5283e-06
1.35054e-06
-3.61067e-06
1.08462e-06
-3.67383e-06
8.0749e-07
-3.71735e-06
5.21625e-07
-3.74088e-06
2.29486e-07
-3.74406e-06
-6.64341e-08
-3.72662e-06
-3.63575e-07
-3.68833e-06
-6.59276e-07
-3.62904e-06
-9.50743e-07
-3.54867e-06
-1.23502e-06
-3.44731e-06
-1.50898e-06
-3.32517e-06
-1.76927e-06
-3.18271e-06
-2.01237e-06
-3.02062e-06
-2.23456e-06
-2.83994e-06
-2.43193e-06
-2.64205e-06
-2.60048e-06
-2.42877e-06
-2.73613e-06
-2.20241e-06
-2.83483e-06
-1.9658e-06
-2.89265e-06
-1.72229e-06
-2.90592e-06
-1.47584e-06
-2.87135e-06
-1.23094e-06
-2.78621e-06
-9.92596e-07
-2.64846e-06
-7.66298e-07
-2.45692e-06
-5.57898e-07
-2.21142e-06
-3.73514e-07
-1.91295e-06
-2.19399e-07
-1.56368e-06
-1.01786e-07
-1.16707e-06
-2.67434e-08
-7.27814e-07
-2.52072e-07
-2.68002e-08
2.79969e-07
-1.01098e-07
7.96677e-07
-2.16548e-07
1.26436e-06
-3.66743e-07
1.67917e-06
-5.4538e-07
2.03881e-06
-7.46378e-07
2.34211e-06
-9.63991e-07
2.589e-06
-1.19289e-06
2.78034e-06
-1.42823e-06
2.9178e-06
-1.66565e-06
3.00368e-06
-1.90133e-06
3.04075e-06
-2.13197e-06
3.03214e-06
-2.35474e-06
2.98117e-06
-2.56726e-06
2.8913e-06
-2.76756e-06
2.76598e-06
-2.95404e-06
2.60863e-06
-3.12539e-06
2.42256e-06
-3.28057e-06
2.21097e-06
-3.41873e-06
1.97689e-06
-3.53921e-06
1.72324e-06
-3.64144e-06
1.45277e-06
-3.72496e-06
1.16814e-06
-3.78937e-06
8.71892e-07
-3.83428e-06
5.66538e-07
-3.85935e-06
2.5456e-07
-3.86425e-06
-6.15322e-08
-3.84867e-06
-3.79163e-07
-3.81229e-06
-6.95649e-07
-3.75488e-06
-1.00816e-06
-3.67624e-06
-1.31366e-06
-3.57628e-06
-1.60893e-06
-3.45507e-06
-1.89049e-06
-3.31285e-06
-2.1546e-06
-3.15012e-06
-2.39728e-06
-2.96773e-06
-2.61432e-06
-2.76687e-06
-2.80133e-06
-2.54923e-06
-2.95377e-06
-2.317e-06
-3.06706e-06
-2.07296e-06
-3.13669e-06
-1.82052e-06
-3.15836e-06
-1.56373e-06
-3.12814e-06
-1.30732e-06
-3.04262e-06
-1.05662e-06
-2.89915e-06
-8.17552e-07
-2.69599e-06
-5.96492e-07
-2.43248e-06
-4.00171e-07
-2.10927e-06
-2.35516e-07
-1.72833e-06
-1.09471e-07
-1.29312e-06
-2.88247e-08
-8.08461e-07
-2.80896e-07
-2.84631e-08
3.08432e-07
-1.07196e-07
8.7541e-07
-2.29252e-07
1.38641e-06
-3.8762e-07
1.83754e-06
-5.75409e-07
2.2266e-06
-7.86003e-07
2.5527e-06
-1.01319e-06
2.81618e-06
-1.25124e-06
3.01839e-06
-1.49502e-06
3.16157e-06
-1.73995e-06
3.24861e-06
-1.98209e-06
3.28289e-06
-2.21808e-06
3.26812e-06
-2.4451e-06
3.20819e-06
-2.66085e-06
3.10705e-06
-2.86348e-06
2.96861e-06
-3.05152e-06
2.79666e-06
-3.22383e-06
2.59487e-06
-3.37953e-06
2.36667e-06
-3.51796e-06
2.11532e-06
-3.6386e-06
1.84388e-06
-3.74105e-06