/*--------------------------------*- C++ -*----------------------------------*\
  =========                 |
  \\      /  F ield         | OpenFOAM: The Open Source CFD Toolbox
   \\    /   O peration     | Website:  https://openfoam.org
    \\  /    A nd           | Version:  7
     \\/     M anipulation  |
\*---------------------------------------------------------------------------*/
FoamFile
{
    version     2.0;
    format      ascii;
    class       volVectorField;
    location    "0.0412";
    object      U;
}
// * * * * * * * * * * * * * * * * * * * * * * * * * * * * * * * * * * * * * //

dimensions      [0 1 -1 0 0 0 0];

internalField   nonuniform List<vector> 
2500
(
(0.290249 -0.152411 0)
(0.38953 -0.128233 0)
(0.565414 -0.0747313 0)
(0.683237 -0.0422297 0)
(0.752825 -0.0245273 0)
(0.797831 -0.0148856 0)
(0.82899 -0.00957744 0)
(0.851454 -0.00655351 0)
(0.868251 -0.00472899 0)
(0.881205 -0.0035539 0)
(0.891424 -0.00274995 0)
(0.899618 -0.00217165 0)
(0.906265 -0.00173909 0)
(0.911702 -0.00140578 0)
(0.916172 -0.00114303 0)
(0.91986 -0.000932141 0)
(0.922903 -0.000760289 0)
(0.925411 -0.000618318 0)
(0.927467 -0.000499449 0)
(0.929138 -0.0003985 0)
(0.930477 -0.000311391 0)
(0.931523 -0.000234812 0)
(0.932308 -0.000165995 0)
(0.932853 -0.000102551 0)
(0.933174 -4.23401e-05 0)
(0.933279 1.66167e-05 0)
(0.93317 7.61936e-05 0)
(0.932841 0.000138378 0)
(0.932281 0.000205211 0)
(0.931472 0.000278939 0)
(0.930386 0.000362146 0)
(0.928989 0.000457915 0)
(0.927232 0.000570053 0)
(0.925056 0.000703418 0)
(0.922382 0.000864404 0)
(0.91911 0.0010617 0)
(0.915106 0.00130749 0)
(0.910198 0.00161954 0)
(0.90415 0.00202493 0)
(0.896635 0.00256709 0)
(0.887186 0.00332005 0)
(0.87511 0.00441811 0)
(0.859318 0.00611992 0)
(0.838008 0.00894623 0)
(0.808127 0.013957 0)
(0.764403 0.023244 0)
(0.695904 0.0407699 0)
(0.577941 0.0737463 0)
(0.398049 0.128745 0)
(0.293869 0.153785 0)
(0.00108379 -0.294887 0)
(0.0168513 -0.298609 0)
(0.15231 -0.21301 0)
(0.282831 -0.145312 0)
(0.387977 -0.0996191 0)
(0.471165 -0.069786 0)
(0.536549 -0.0504285 0)
(0.587981 -0.0376243 0)
(0.628804 -0.0288617 0)
(0.66158 -0.0226386 0)
(0.688172 -0.0180648 0)
(0.709941 -0.0146018 0)
(0.727887 -0.011914 0)
(0.742759 -0.00978481 0)
(0.755126 -0.00806932 0)
(0.765428 -0.00666707 0)
(0.774008 -0.00550608 0)
(0.781137 -0.00453317 0)
(0.78703 -0.00370795 0)
(0.791858 -0.00299886 0)
(0.795759 -0.0023806 0)
(0.798838 -0.00183229 0)
(0.801178 -0.00133626 0)
(0.802838 -0.000877032 0)
(0.80386 -0.000440647 0)
(0.804264 -1.40353e-05 0)
(0.804058 0.000415465 0)
(0.803229 0.000860755 0)
(0.801746 0.00133537 0)
(0.799562 0.00185415 0)
(0.796605 0.00243396 0)
(0.792782 0.00309472 0)
(0.787969 0.00386064 0)
(0.782008 0.00476214 0)
(0.774697 0.0058385 0)
(0.765777 0.00714179 0)
(0.754916 0.00874307 0)
(0.741683 0.010742 0)
(0.725508 0.013283 0)
(0.705636 0.0165821 0)
(0.681036 0.0209752 0)
(0.650293 0.027004 0)
(0.611426 0.0355737 0)
(0.561664 0.0482363 0)
(0.497274 0.0676509 0)
(0.413793 0.0981202 0)
(0.306317 0.145757 0)
(0.170519 0.217288 0)
(0.0269009 0.307191 0)
(0.00518556 0.303009 0)
(-0.0329187 -0.250384 0)
(-0.0615922 -0.344033 0)
(-0.0115049 -0.31057 0)
(0.0707813 -0.251487 0)
(0.158851 -0.195933 0)
(0.241316 -0.151332 0)
(0.313821 -0.117601 0)
(0.375674 -0.0924737 0)
(0.427777 -0.0736573 0)
(0.471483 -0.0593735 0)
(0.508133 -0.0483492 0)
(0.538907 -0.0396958 0)
(0.564789 -0.0327955 0)
(0.586587 -0.0272142 0)
(0.604958 -0.022642 0)
(0.620435 -0.0188532 0)
(0.63345 -0.0156796 0)
(0.644357 -0.0129933 0)
(0.653443 -0.0106945 0)
(0.660941 -0.00870365 0)
(0.66704 -0.00695587 0)
(0.671889 -0.00539677 0)
(0.675604 -0.00397965 0)
(0.678269 -0.00266322 0)
(0.679944 -0.00140982 0)
(0.68066 -0.000183975 0)
(0.680425 0.00104896 0)
(0.679221 0.0023241 0)
(0.677005 0.00367836 0)
(0.673704 0.00515204 0)
(0.669219 0.00679066 0)
(0.663412 0.00864737 0)
(0.656109 0.0107861 0)
(0.647086 0.013286 0)
(0.636064 0.0162473 0)
(0.622691 0.0198003 0)
(0.606525 0.024118 0)
(0.587014 0.0294354 0)
(0.563459 0.036078 0)
(0.534982 0.0445062 0)
(0.500477 0.0553827 0)
(0.458583 0.0696714 0)
(0.407681 0.0887755 0)
(0.346014 0.114693 0)
(0.27215 0.15007 0)
(0.186217 0.197667 0)
(0.0922447 0.258025 0)
(0.00184318 0.323288 0)
(-0.0569303 0.361535 0)
(-0.0321694 0.263989 0)
(-0.0267696 -0.190615 0)
(-0.0654281 -0.332983 0)
(-0.0645683 -0.351442 0)
(-0.027552 -0.319143 0)
(0.0295146 -0.271837 0)
(0.0935522 -0.225246 0)
(0.156871 -0.184851 0)
(0.215673 -0.151562 0)
(0.268444 -0.124651 0)
(0.314897 -0.10299 0)
(0.355331 -0.0854985 0)
(0.390295 -0.071278 0)
(0.420401 -0.0596211 0)
(0.446246 -0.0499828 0)
(0.468373 -0.041945 0)
(0.487261 -0.0351853 0)
(0.503324 -0.0294524 0)
(0.516915 -0.0245476 0)
(0.528333 -0.0203112 0)
(0.537825 -0.0166124 0)
(0.545598 -0.0133421 0)
(0.551818 -0.0104069 0)
(0.556613 -0.00772536 0)
(0.560081 -0.00522455 0)
(0.562288 -0.00283709 0)
(0.563269 -0.000498976 0)
(0.563033 0.00185259 0)
(0.561555 0.00428135 0)
(0.558784 0.00685426 0)
(0.554635 0.00964396 0)
(0.548987 0.0127318 0)
(0.541684 0.0162118 0)
(0.532523 0.0201951 0)
(0.521253 0.024817 0)
(0.507566 0.030245 0)
(0.491086 0.0366912 0)
(0.471361 0.0444281 0)
(0.447847 0.053811 0)
(0.419909 0.0653082 0)
(0.38681 0.0795397 0)
(0.347747 0.0973246 0)
(0.301914 0.119724 0)
(0.248682 0.148049 0)
(0.187962 0.183733 0)
(0.120913 0.227847 0)
(0.0512097 0.279705 0)
(-0.0131056 0.33358 0)
(-0.0578213 0.372167 0)
(-0.0646773 0.35591 0)
(-0.0272856 0.204805 0)
(-0.0178475 -0.149168 0)
(-0.0531183 -0.302891 0)
(-0.0736776 -0.354775 0)
(-0.0667141 -0.350073 0)
(-0.0376409 -0.319331 0)
(0.00433108 -0.279917 0)
(0.0519958 -0.240416 0)
(0.100595 -0.20445 0)
(0.147292 -0.173131 0)
(0.190589 -0.146431 0)
(0.229838 -0.123875 0)
(0.26489 -0.104868 0)
(0.295869 -0.0888311 0)
(0.323037 -0.0752577 0)
(0.34671 -0.0637181 0)
(0.367218 -0.0538562 0)
(0.384877 -0.0453778 0)
(0.399977 -0.0380389 0)
(0.412778 -0.0316355 0)
(0.423504 -0.0259949 0)
(0.432347 -0.0209687 0)
(0.439464 -0.0164273 0)
(0.444982 -0.0122551 0)
(0.448995 -0.00834644 0)
(0.451566 -0.00460297 0)
(0.452731 -0.000930084 0)
(0.452493 0.00276555 0)
(0.450825 0.00657883 0)
(0.447672 0.0106091 0)
(0.442941 0.0149636 0)
(0.436509 0.019761 0)
(0.428215 0.0251364 0)
(0.417855 0.031247 0)
(0.405185 0.038279 0)
(0.389913 0.0464576 0)
(0.3717 0.0560577 0)
(0.350159 0.0674189 0)
(0.324863 0.0809618 0)
(0.295364 0.0972059 0)
(0.26123 0.116783 0)
(0.222129 0.140437 0)
(0.17797 0.168973 0)
(0.129157 0.203117 0)
(0.0769938 0.243142 0)
(0.0242769 0.28807 0)
(-0.0238999 0.33408 0)
(-0.0595114 0.371623 0)
(-0.071996 0.381107 0)
(-0.0543393 0.328129 0)
(-0.0186447 0.162469 0)
(-0.0114284 -0.120901 0)
(-0.0402881 -0.269866 0)
(-0.0679278 -0.339961 0)
(-0.0779518 -0.357026 0)
(-0.0692432 -0.343622 0)
(-0.0465919 -0.315248 0)
(-0.0151775 -0.281295 0)
(0.0207374 -0.246915 0)
(0.0580435 -0.214638 0)
(0.0946822 -0.185504 0)
(0.129404 -0.159761 0)
(0.161525 -0.137272 0)
(0.190733 -0.117735 0)
(0.216951 -0.100796 0)
(0.240243 -0.0861037 0)
(0.260749 -0.0733342 0)
(0.278648 -0.0621974 0)
(0.294131 -0.0524373 0)
(0.307383 -0.043829 0)
(0.31858 -0.0361743 0)
(0.327874 -0.0292969 0)
(0.335398 -0.023038 0)
(0.341258 -0.017253 0)
(0.345536 -0.011807 0)
(0.348285 -0.00657239 0)
(0.349533 -0.00142527 0)
(0.34928 0.0037574 0)
(0.347496 0.0091009 0)
(0.344125 0.014736 0)
(0.339078 0.0208025 0)
(0.332238 0.0274536 0)
(0.323455 0.0348602 0)
(0.312549 0.0432169 0)
(0.299308 0.0527483 0)
(0.283493 0.0637163 0)
(0.264845 0.0764284 0)
(0.243094 0.0912445 0)
(0.217987 0.108583 0)
(0.189324 0.128915 0)
(0.157023 0.152749 0)
(0.121232 0.180569 0)
(0.0824824 0.212713 0)
(0.0419334 0.249111 0)
(0.00167919 0.288811 0)
(-0.0349171 0.329132 0)
(-0.0630063 0.364326 0)
(-0.0764829 0.383612 0)
(-0.0694529 0.369158 0)
(-0.0423163 0.295239 0)
(-0.0121848 0.132968 0)
(-0.00747507 -0.100885 0)
(-0.0304726 -0.239539 0)
(-0.0587478 -0.317792 0)
(-0.0772006 -0.349802 0)
(-0.0817375 -0.351123 0)
(-0.0738716 -0.334237 0)
(-0.0566168 -0.307905 0)
(-0.0331284 -0.277746 0)
(-0.00613322 -0.247097 0)
(0.0222735 -0.217785 0)
(0.0506058 -0.190699 0)
(0.0778756 -0.166173 0)
(0.10347 -0.144234 0)
(0.127044 -0.124746 0)
(0.148437 -0.107497 0)
(0.167608 -0.0922448 0)
(0.184591 -0.0787452 0)
(0.199466 -0.0667624 0)
(0.212332 -0.0560751 0)
(0.223296 -0.0464781 0)
(0.232463 -0.037781 0)
(0.239925 -0.0298068 0)
(0.245761 -0.0223893 0)
(0.25003 -0.0153707 0)
(0.252771 -0.0085988 0)
(0.254002 -0.00192419 0)
(0.253717 0.00480231 0)
(0.251887 0.0117328 0)
(0.248456 0.0190253 0)
(0.243347 0.0268475 0)
(0.236459 0.0353798 0)
(0.227667 0.0448199 0)
(0.216828 0.055387 0)
(0.203783 0.0673257 0)
(0.188369 0.0809098 0)
(0.170428 0.0964441 0)
(0.149834 0.114263 0)
(0.126522 0.134718 0)
(0.100538 0.158157 0)
(0.0721193 0.184868 0)
(0.0417904 0.214986 0)
(0.0105069 0.24831 0)
(-0.0201794 0.284014 0)
(-0.0479546 0.320166 0)
(-0.0696704 0.353026 0)
(-0.0815304 0.376108 0)
(-0.0797421 0.379166 0)
(-0.0621256 0.347649 0)
(-0.032776 0.263726 0)
(-0.00813018 0.111608 0)
(-0.00514012 -0.0861983 0)
(-0.0235804 -0.213174 0)
(-0.0500286 -0.293484 0)
(-0.0720195 -0.334724 0)
(-0.0845716 -0.347258 0)
(-0.087212 -0.340586 0)
(-0.0812335 -0.322204 0)
(-0.0686228 -0.297502 0)
(-0.0514498 -0.270098 0)
(-0.0315319 -0.242272 0)
(-0.0103173 -0.215374 0)
(0.0111118 -0.190137 0)
(0.0319889 -0.166899 0)
(0.0517986 -0.145756 0)
(0.070215 -0.126659 0)
(0.0870505 -0.10948 0)
(0.102214 -0.0940478 0)
(0.115679 -0.0801712 0)
(0.127459 -0.0676539 0)
(0.137593 -0.0563009 0)
(0.146128 -0.0459219 0)
(0.153116 -0.0363327 0)
(0.158599 -0.027355 0)
(0.162614 -0.0188154 0)
(0.16518 -0.0105435 0)
(0.166305 -0.00237033 0)
(0.165976 0.00587398 0)
(0.164165 0.0143627 0)
(0.160825 0.0232751 0)
(0.155892 0.0327987 0)
(0.149287 0.0431328 0)
(0.140921 0.05449 0)
(0.130696 0.067099 0)
(0.118517 0.081205 0)
(0.104304 0.0970688 0)
(0.0880107 0.114961 0)
(0.0696474 0.135151 0)
(0.0493225 0.157882 0)
(0.0272914 0.183327 0)
(0.0040241 0.211518 0)
(-0.0197121 0.242221 0)
(-0.042759 0.274752 0)
(-0.0634843 0.30769 0)
(-0.0797502 0.338482 0)
(-0.0890247 0.362941 0)
(-0.0887632 0.374714 0)
(-0.0771487 0.364931 0)
(-0.0544001 0.322458 0)
(-0.0259371 0.235448 0)
(-0.00570692 0.0955811 0)
(-0.00374352 -0.074964 0)
(-0.0188183 -0.190521 0)
(-0.0427896 -0.269415 0)
(-0.0657679 -0.31567 0)
(-0.0828905 -0.336098 0)
(-0.0926628 -0.337713 0)
(-0.0952055 -0.326617 0)
(-0.0915279 -0.307617 0)
(-0.0830126 -0.284244 0)
(-0.071065 -0.258951 0)
(-0.0569332 -0.233361 0)
(-0.0416426 -0.208487 0)
(-0.02599 -0.184922 0)
(-0.0105678 -0.16297 0)
(0.0042014 -0.142745 0)
(0.0180291 -0.124239 0)
(0.0307284 -0.107368 0)
(0.0421865 -0.0920027 0)
(0.052343 -0.0779849 0)
(0.0611721 -0.0651436 0)
(0.0686697 -0.0533005 0)
(0.0748429 -0.0422747 0)
(0.0797027 -0.0318849 0)
(0.083258 -0.0219498 0)
(0.0855119 -0.0122884 0)
(0.0864588 -0.00271874 0)
(0.0860831 0.00694313 0)
(0.0843579 0.0168848 0)
(0.0812463 0.0272991 0)
(0.0767022 0.0383853 0)
(0.0706738 0.0503509 0)
(0.0631083 0.0634117 0)
(0.0539592 0.077791 0)
(0.0431966 0.0937172 0)
(0.0308219 0.111417 0)
(0.0168882 0.131104 0)
(0.00152685 0.152956 0)
(-0.0150172 0.177083 0)
(-0.0323415 0.203472 0)
(-0.0498354 0.231899 0)
(-0.0666257 0.261812 0)
(-0.0815328 0.292148 0)
(-0.0930597 0.321103 0)
(-0.0994557 0.34584 0)
(-0.0989227 0.362184 0)
(-0.0900439 0.364403 0)
(-0.0724285 0.345243 0)
(-0.0476197 0.296509 0)
(-0.021125 0.210517 0)
(-0.00424101 0.0830588 0)
(-0.00287734 -0.0660029 0)
(-0.0154975 -0.170944 0)
(-0.0370708 -0.24653 0)
(-0.0598141 -0.29487 0)
(-0.0793755 -0.320439 0)
(-0.093842 -0.328347 0)
(-0.102621 -0.32342 0)
(-0.106001 -0.30976 0)
(-0.104765 -0.290606 0)
(-0.0998908 -0.268382 0)
(-0.0923558 -0.244816 0)
(-0.0830398 -0.221091 0)
(-0.0726831 -0.197979 0)
(-0.0618799 -0.175948 0)
(-0.0510893 -0.155255 0)
(-0.0406541 -0.136005 0)
(-0.0308231 -0.118202 0)
(-0.0217707 -0.101782 0)
(-0.0136154 -0.0866362 0)
(-0.00643472 -0.0726245 0)
(-0.000277981 -0.0595899 0)
(0.00482428 -0.0473632 0)
(0.00885246 -0.0357678 0)
(0.0117921 -0.0246226 0)
(0.0136298 -0.0137426 0)
(0.0143501 -0.00294012 0)
(0.0139342 0.00797606 0)
(0.0123593 0.0192005 0)
(0.00959965 0.0309316 0)
(0.00562843 0.0433719 0)
(0.000421811 0.0567273 0)
(-0.0060354 0.0712054 0)
(-0.0137415 0.0870118 0)
(-0.0226667 0.104344 0)
(-0.0327381 0.12338 0)
(-0.0438202 0.144261 0)
(-0.0556912 0.167064 0)
(-0.0680136 0.191762 0)
(-0.0803021 0.218163 0)
(-0.0918918 0.245828 0)
(-0.101914 0.273957 0)
(-0.109293 0.30124 0)
(-0.112786 0.325685 0)
(-0.111101 0.344432 0)
(-0.10313 0.353607 0)
(-0.0883371 0.348294 0)
(-0.0672506 0.322775 0)
(-0.0420183 0.271154 0)
(-0.0176951 0.188518 0)
(-0.00331744 0.0728813 0)
(-0.00231646 -0.0585865 0)
(-0.0131398 -0.1538 0)
(-0.032635 -0.225085 0)
(-0.054626 -0.273529 0)
(-0.0753626 -0.3021 0)
(-0.0928485 -0.314507 0)
(-0.106104 -0.314511 0)
(-0.114925 -0.30552 0)
(-0.119629 -0.29039 0)
(-0.120809 -0.271387 0)
(-0.119162 -0.25023 0)
(-0.115382 -0.228172 0)
(-0.110102 -0.206089 0)
(-0.103867 -0.184568 0)
(-0.0971243 -0.163972 0)
(-0.0902323 -0.144505 0)
(-0.0834692 -0.126251 0)
(-0.0770464 -0.109209 0)
(-0.0711214 -0.0933189 0)
(-0.0658098 -0.0784789 0)
(-0.0611954 -0.0645575 0)
(-0.057339 -0.0514032 0)
(-0.0542854 -0.0388509 0)
(-0.0520682 -0.0267255 0)
(-0.0507146 -0.0148449 0)
(-0.0502474 -0.00302184 0)
(-0.0506868 0.00893506 0)
(-0.0520505 0.0212204 0)
(-0.0543523 0.034031 0)
(-0.0575998 0.0475642 0)
(-0.0617903 0.0620159 0)
(-0.0669045 0.0775765 0)
(-0.0728984 0.0944243 0)
(-0.0796922 0.112717 0)
(-0.0871568 0.132575 0)
(-0.0950975 0.154063 0)
(-0.103234 0.177158 0)
(-0.111181 0.201706 0)
(-0.118426 0.227367 0)
(-0.124321 0.253535 0)
(-0.128077 0.279245 0)
(-0.128794 0.303061 0)
(-0.125531 0.322962 0)
(-0.117438 0.336239 0)
(-0.103978 0.339457 0)
(-0.0852476 0.328549 0)
(-0.0623045 0.299105 0)
(-0.0374748 0.246942 0)
(-0.0151891 0.16895 0)
(-0.00270537 0.0643334 0)
(-0.00193787 -0.0522537 0)
(-0.0114324 -0.138551 0)
(-0.02921 -0.205038 0)
(-0.0502874 -0.252263 0)
(-0.0714777 -0.282224 0)
(-0.090867 -0.297624 0)
(-0.107297 -0.301377 0)
(-0.120254 -0.296267 0)
(-0.129712 -0.28475 0)
(-0.135949 -0.268871 0)
(-0.139406 -0.250259 0)
(-0.140586 -0.230162 0)
(-0.139991 -0.209502 0)
(-0.138085 -0.188931 0)
(-0.135273 -0.168892 0)
(-0.131896 -0.149661 0)
(-0.128238 -0.131388 0)
(-0.124523 -0.11413 0)
(-0.12093 -0.0978719 0)
(-0.117599 -0.0825494 0)
(-0.114637 -0.0680593 0)
(-0.112126 -0.0542719 0)
(-0.110129 -0.0410374 0)
(-0.108695 -0.0281922 0)
(-0.107859 -0.0155623 0)
(-0.107651 -0.00296677 0)
(-0.10809 0.00978019 0)
(-0.109187 0.0228669 0)
(-0.110945 0.036482 0)
(-0.113353 0.0508112 0)
(-0.116385 0.0660335 0)
(-0.119993 0.0823153 0)
(-0.124099 0.0998019 0)
(-0.128586 0.118606 0)
(-0.133285 0.13879 0)
(-0.137966 0.160344 0)
(-0.142321 0.183156 0)
(-0.145956 0.206966 0)
(-0.148377 0.231319 0)
(-0.148999 0.2555 0)
(-0.147161 0.278456 0)
(-0.142167 0.298724 0)
(-0.133373 0.314363 0)
(-0.120314 0.322913 0)
(-0.102895 0.321429 0)
(-0.0816258 0.30662 0)
(-0.0578324 0.275138 0)
(-0.0337909 0.224035 0)
(-0.0133064 0.151366 0)
(-0.00227881 0.0569651 0)
(-0.00167301 -0.0467023 0)
(-0.0101728 -0.124771 0)
(-0.0265611 -0.186234 0)
(-0.0467329 -0.231359 0)
(-0.0679821 -0.261516 0)
(-0.088546 -0.278693 0)
(-0.107212 -0.285145 0)
(-0.123286 -0.283127 0)
(-0.136502 -0.274715 0)
(-0.146894 -0.26171 0)
(-0.154687 -0.245607 0)
(-0.160205 -0.227597 0)
(-0.163817 -0.208598 0)
(-0.165888 -0.189292 0)
(-0.166763 -0.170164 0)
(-0.166749 -0.151542 0)
(-0.166109 -0.133625 0)
(-0.165067 -0.116516 0)
(-0.163806 -0.100242 0)
(-0.162476 -0.0847718 0)
(-0.161197 -0.0700302 0)
(-0.160065 -0.0559106 0)
(-0.159154 -0.0422816 0)
(-0.158522 -0.0289944 0)
(-0.15821 -0.0158873 0)
(-0.15825 -0.00279041 0)
(-0.158659 0.0104717 0)
(-0.159442 0.024076 0)
(-0.16059 0.0381977 0)
(-0.162079 0.0530059 0)
(-0.163862 0.068658 0)
(-0.165868 0.0852925 0)
(-0.167996 0.103019 0)
(-0.170102 0.121906 0)
(-0.171999 0.141959 0)
(-0.17344 0.163105 0)
(-0.174118 0.185156 0)
(-0.173657 0.207772 0)
(-0.171616 0.230424 0)
(-0.167504 0.252335 0)
(-0.160804 0.272431 0)
(-0.151028 0.289295 0)
(-0.1378 0.301132 0)
(-0.120966 0.305779 0)
(-0.100748 0.300767 0)
(-0.077912 0.283474 0)
(-0.0538839 0.251381 0)
(-0.0307824 0.202423 0)
(-0.0118537 0.135404 0)
(-0.00196797 0.0504825 0)
(-0.00148226 -0.0417268 0)
(-0.00922877 -0.112131 0)
(-0.0245039 -0.168491 0)
(-0.0438509 -0.210928 0)
(-0.0649559 -0.240402 0)
(-0.0862252 -0.258392 0)
(-0.106461 -0.266649 0)
(-0.124872 -0.266992 0)
(-0.141036 -0.261155 0)
(-0.154806 -0.250698 0)
(-0.166228 -0.236959 0)
(-0.175473 -0.221042 0)
(-0.182782 -0.203826 0)
(-0.188423 -0.18599 0)
(-0.19267 -0.168035 0)
(-0.19578 -0.150318 0)
(-0.197987 -0.133072 0)
(-0.199497 -0.116434 0)
(-0.200488 -0.100463 0)
(-0.201109 -0.085158 0)
(-0.201482 -0.0704701 0)
(-0.201709 -0.0563149 0)
(-0.201869 -0.0425807 0)
(-0.202024 -0.0291356 0)
(-0.202219 -0.0158331 0)
(-0.202483 -0.0025174 0)
(-0.202831 0.0109726 0)
(-0.203262 0.0247988 0)
(-0.203758 0.0391194 0)
(-0.20428 0.0540834 0)
(-0.204769 0.0698242 0)
(-0.205138 0.0864511 0)
(-0.205271 0.104039 0)
(-0.205012 0.122612 0)
(-0.204167 0.142132 0)
(-0.202493 0.162469 0)
(-0.199703 0.18338 0)
(-0.195463 0.204473 0)
(-0.189404 0.225177 0)
(-0.181139 0.2447 0)
(-0.170302 0.261993 0)
(-0.156597 0.275734 0)
(-0.139872 0.284314 0)
(-0.120214 0.28587 0)
(-0.0980637 0.278367 0)
(-0.0743276 0.25974 0)
(-0.0504327 0.228105 0)
(-0.0283018 0.182022 0)
(-0.0107066 0.120776 0)
(-0.00173305 0.044685 0)
(-0.00134175 -0.0371835 0)
(-0.00851177 -0.10038 0)
(-0.0228985 -0.151632 0)
(-0.0415263 -0.190986 0)
(-0.0623943 -0.219132 0)
(-0.0840706 -0.237183 0)
(-0.105405 -0.246504 0)
(-0.125568 -0.24856 0)
(-0.144034 -0.244791 0)
(-0.160525 -0.236528 0)
(-0.174952 -0.224948 0)
(-0.187354 -0.21105 0)
(-0.19786 -0.195654 0)
(-0.206646 -0.179408 0)
(-0.213912 -0.162811 0)
(-0.21986 -0.146228 0)
(-0.224687 -0.129909 0)
(-0.228572 -0.114016 0)
(-0.231678 -0.098632 0)
(-0.234144 -0.0837786 0)
(-0.23609 -0.0694304 0)
(-0.237614 -0.055524 0)
(-0.238796 -0.0419667 0)
(-0.239698 -0.0286446 0)
(-0.240364 -0.0154281 0)
(-0.240821 -0.00217764 0)
(-0.241079 0.0112512 0)
(-0.241131 0.0250027 0)
(-0.240951 0.0392159 0)
(-0.240492 0.0540181 0)
(-0.239685 0.0695179 0)
(-0.238435 0.0857962 0)
(-0.236617 0.102895 0)
(-0.234076 0.120804 0)
(-0.230623 0.139444 0)
(-0.226035 0.158647 0)
(-0.220057 0.178132 0)
(-0.21241 0.19748 0)
(-0.202807 0.216109 0)
(-0.190971 0.233243 0)
(-0.176675 0.247899 0)
(-0.15979 0.258873 0)
(-0.140347 0.264756 0)
(-0.118611 0.263974 0)
(-0.095165 0.254869 0)
(-0.0709794 0.235826 0)
(-0.0474291 0.205443 0)
(-0.0262375 0.162722 0)
(-0.00978344 0.107254 0)
(-0.00155036 0.0394309 0)
(-0.00123644 -0.0329689 0)
(-0.00796148 -0.0893264 0)
(-0.0216401 -0.135501 0)
(-0.0396562 -0.171506 0)
(-0.0602565 -0.197848 0)
(-0.0821525 -0.215374 0)
(-0.104257 -0.225156 0)
(-0.12573 -0.22837 0)
(-0.145987 -0.226205 0)
(-0.164659 -0.219787 0)
(-0.181551 -0.210136 0)
(-0.196599 -0.198139 0)
(-0.209833 -0.184539 0)
(-0.221345 -0.169943 0)
(-0.231265 -0.154825 0)
(-0.239742 -0.139546 0)
(-0.246929 -0.124362 0)
(-0.252976 -0.109444 0)
(-0.258022 -0.0948924 0)
(-0.262191 -0.0807472 0)
(-0.265595 -0.0670012 0)
(-0.268324 -0.0536092 0)
(-0.270455 -0.040497 0)
(-0.272045 -0.0275683 0)
(-0.273134 -0.0147108 0)
(-0.273748 -0.00180264 0)
(-0.27389 0.0112828 0)
(-0.273548 0.0246711 0)
(-0.272691 0.0384812 0)
(-0.271265 0.0528186 0)
(-0.269196 0.067768 0)
(-0.266386 0.0833844 0)
(-0.262712 0.099682 0)
(-0.258025 0.116621 0)
(-0.252152 0.134094 0)
(-0.244898 0.151907 0)
(-0.236052 0.169761 0)
(-0.225396 0.187229 0)
(-0.212724 0.203744 0)
(-0.197866 0.218574 0)
(-0.18072 0.230819 0)
(-0.161297 0.239411 0)
(-0.13977 0.243138 0)
(-0.116532 0.240687 0)
(-0.0922513 0.230722 0)
(-0.0679155 0.211988 0)
(-0.0448215 0.183445 0)
(-0.024507 0.144405 0)
(-0.00902992 0.09466 0)
(-0.00140526 0.0346154 0)
(-0.00115652 -0.0290068 0)
(-0.00753584 -0.0788197 0)
(-0.0206502 -0.119965 0)
(-0.0381547 -0.152441 0)
(-0.05849 -0.176627 0)
(-0.0804901 -0.193175 0)
(-0.103132 -0.202929 0)
(-0.125585 -0.206834 0)
(-0.147233 -0.205866 0)
(-0.167644 -0.200969 0)
(-0.186543 -0.193013 0)
(-0.203785 -0.182773 0)
(-0.219317 -0.170912 0)
(-0.23316 -0.157979 0)
(-0.245379 -0.144417 0)
(-0.25607 -0.130566 0)
(-0.265344 -0.116678 0)
(-0.273318 -0.102926 0)
(-0.280105 -0.0894179 0)
(-0.285812 -0.0762066 0)
(-0.290536 -0.0632987 0)
(-0.294359 -0.0506648 0)
(-0.297347 -0.0382468 0)
(-0.299555 -0.0259653 0)
(-0.301015 -0.0137253 0)
(-0.301749 -0.00142248 0)
(-0.301755 0.0110516 0)
(-0.301017 0.0238038 0)
(-0.299499 0.0369329 0)
(-0.297145 0.050524 0)
(-0.293878 0.0646399 0)
(-0.289604 0.0793133 0)
(-0.284204 0.0945359 0)
(-0.277545 0.110247 0)
(-0.269476 0.126321 0)
(-0.259834 0.14255 0)
(-0.248456 0.158633 0)
(-0.235188 0.174157 0)
(-0.219903 0.188584 0)
(-0.202527 0.201244 0)
(-0.183064 0.211334 0)
(-0.16164 0.217926 0)
(-0.138537 0.219992 0)
(-0.114234 0.216452 0)
(-0.0894482 0.206238 0)
(-0.065155 0.188381 0)
(-0.0425648 0.162111 0)
(-0.0230503 0.126961 0)
(-0.008409 0.0828453 0)
(-0.00128833 0.0301589 0)
(-0.00109534 -0.0252403 0)
(-0.00720506 -0.0687443 0)
(-0.0198705 -0.104911 0)
(-0.0369523 -0.133735 0)
(-0.0570427 -0.155505 0)
(-0.0790777 -0.170725 0)
(-0.102094 -0.180061 0)
(-0.125281 -0.184271 0)
(-0.148005 -0.18415 0)
(-0.169794 -0.180481 0)
(-0.190315 -0.173999 0)
(-0.209357 -0.165368 0)
(-0.226804 -0.155167 0)
(-0.242612 -0.143884 0)
(-0.25679 -0.131918 0)
(-0.269387 -0.119583 0)
(-0.280473 -0.107116 0)
(-0.290132 -0.0946848 0)
(-0.298452 -0.0823989 0)
(-0.305518 -0.070317 0)
(-0.311412 -0.058456 0)
(-0.316203 -0.0467989 0)
(-0.31995 -0.0353019 0)
(-0.322698 -0.0239008 0)
(-0.324474 -0.0125171 0)
(-0.325294 -0.00106328 0)
(-0.325152 0.0105513 0)
(-0.324027 0.0224152 0)
(-0.321882 0.0346089 0)
(-0.318659 0.0471983 0)
(-0.314284 0.0602277 0)
(-0.308666 0.0737116 0)
(-0.3017 0.0876254 0)
(-0.293269 0.101895 0)
(-0.283247 0.116386 0)
(-0.271508 0.130891 0)
(-0.257938 0.145118 0)
(-0.242441 0.15868 0)
(-0.224965 0.171086 0)
(-0.205519 0.181738 0)
(-0.184197 0.189935 0)
(-0.161216 0.194885 0)
(-0.136936 0.195731 0)
(-0.111898 0.191595 0)
(-0.0868373 0.181629 0)
(-0.0627039 0.165091 0)
(-0.0406225 0.141414 0)
(-0.021824 0.110282 0)
(-0.00789516 0.0716884 0)
(-0.00119332 0.0259984 0)
(-0.00104832 -0.0216256 0)
(-0.00694772 -0.0590089 0)
(-0.0192573 -0.0902474 0)
(-0.035994 -0.115336 0)
(-0.0558679 -0.134495 0)
(-0.0778981 -0.148117 0)
(-0.101174 -0.156726 0)
(-0.124909 -0.160925 0)
(-0.148463 -0.161356 0)
(-0.171336 -0.158662 0)
(-0.193155 -0.153452 0)
(-0.213659 -0.146287 0)
(-0.232679 -0.13766 0)
(-0.250118 -0.127996 0)
(-0.265941 -0.117644 0)
(-0.28015 -0.106885 0)
(-0.29278 -0.0959344 0)
(-0.303883 -0.084949 0)
(-0.313523 -0.0740333 0)
(-0.321764 -0.0632476 0)
(-0.328672 -0.0526148 0)
(-0.334302 -0.0421273 0)
(-0.338704 -0.0317532 0)
(-0.341912 -0.0214419 0)
(-0.343951 -0.0111298 0)
(-0.344827 -0.000745462 0)
(-0.344532 0.00978528 0)
(-0.343042 0.0205341 0)
(-0.340318 0.0315645 0)
(-0.336303 0.0429262 0)
(-0.330928 0.0546481 0)
(-0.324109 0.066731 0)
(-0.315754 0.0791401 0)
(-0.305765 0.0917953 0)
(-0.294044 0.104563 0)
(-0.280502 0.117244 0)
(-0.265068 0.129569 0)
(-0.247704 0.141187 0)
(-0.228421 0.151663 0)
(-0.207298 0.160478 0)
(-0.184506 0.167032 0)
(-0.160328 0.170664 0)
(-0.135185 0.170671 0)
(-0.109652 0.166349 0)
(-0.0844731 0.157032 0)
(-0.0605624 0.142154 0)
(-0.0389664 0.121302 0)
(-0.0207967 0.0942671 0)
(-0.00747062 0.0610848 0)
(-0.00111599 0.0220824 0)
(-0.00101225 -0.0181288 0)
(-0.00674835 -0.0495402 0)
(-0.0187781 -0.0758954 0)
(-0.035237 -0.0971906 0)
(-0.0549261 -0.113595 0)
(-0.0769309 -0.125413 0)
(-0.100387 -0.13305 0)
(-0.124528 -0.136984 0)
(-0.148716 -0.137726 0)
(-0.172433 -0.135791 0)
(-0.195278 -0.131678 0)
(-0.216952 -0.125847 0)
(-0.237243 -0.11871 0)
(-0.256015 -0.110624 0)
(-0.27319 -0.101888 0)
(-0.288735 -0.0927455 0)
(-0.302652 -0.083384 0)
(-0.314967 -0.0739433 0)
(-0.325717 -0.0645192 0)
(-0.33495 -0.0551694 0)
(-0.342714 -0.0459193 0)
(-0.349053 -0.0367678 0)
(-0.354005 -0.0276924 0)
(-0.357598 -0.0186543 0)
(-0.359847 -0.00960339 0)
(-0.360756 -0.000482756 0)
(-0.360311 0.00876666 0)
(-0.358488 0.0182013 0)
(-0.355246 0.02787 0)
(-0.350531 0.0378085 0)
(-0.344278 0.0480342 0)
(-0.336413 0.058539 0)
(-0.326859 0.069283 0)
(-0.315536 0.0801869 0)
(-0.302373 0.0911248 0)
(-0.287314 0.101917 0)
(-0.270331 0.112322 0)
(-0.251433 0.122035 0)
(-0.230688 0.130682 0)
(-0.208231 0.137824 0)
(-0.184293 0.142964 0)
(-0.159209 0.145562 0)
(-0.133443 0.145052 0)
(-0.107591 0.140879 0)
(-0.0823936 0.132528 0)
(-0.058729 0.119574 0)
(-0.0375753 0.101716 0)
(-0.0199457 0.0788199 0)
(-0.00712288 0.0509429 0)
(-0.00105342 0.0183674 0)
(-0.000984859 -0.0147228 0)
(-0.00659573 -0.0402791 0)
(-0.0184087 -0.0617896 0)
(-0.0346484 -0.0792523 0)
(-0.0541852 -0.0927958 0)
(-0.0761565 -0.102651 0)
(-0.0997348 -0.109129 0)
(-0.124174 -0.112597 0)
(-0.14884 -0.113453 0)
(-0.173205 -0.112101 0)
(-0.196846 -0.108935 0)
(-0.219436 -0.104324 0)
(-0.240733 -0.0985987 0)
(-0.260567 -0.0920506 0)
(-0.278827 -0.0849252 0)
(-0.29545 -0.0774237 0)
(-0.310412 -0.0697043 0)
(-0.323713 -0.0618857 0)
(-0.335372 -0.054051 0)
(-0.345417 -0.0462516 0)
(-0.353883 -0.0385127 0)
(-0.360803 -0.0308369 0)
(-0.366205 -0.023209 0)
(-0.370107 -0.0156004 0)
(-0.372522 -0.00797262 0)
(-0.373445 -0.00028179 0)
(-0.372862 0.00751758 0)
(-0.370747 0.0154685 0)
(-0.367057 0.0236072 0)
(-0.361744 0.0319587 0)
(-0.354748 0.0405316 0)
(-0.346003 0.0493133 0)
(-0.335446 0.0582639 0)
(-0.323015 0.0673108 0)
(-0.308664 0.0763424 0)
(-0.292366 0.0852034 0)
(-0.274129 0.0936895 0)
(-0.254004 0.101545 0)
(-0.232102 0.108462 0)
(-0.208608 0.114083 0)
(-0.183795 0.11801 0)
(-0.15804 0.119812 0)
(-0.131833 0.11905 0)
(-0.105785 0.115295 0)
(-0.080626 0.108159 0)
(-0.0572023 0.0973266 0)
(-0.0364338 0.0825841 0)
(-0.0192551 0.063848 0)
(-0.00684314 0.0411804 0)
(-0.0010036 0.0148157 0)
(-0.000964528 -0.0113855 0)
(-0.00648177 -0.0311762 0)
(-0.0181313 -0.0478737 0)
(-0.0342035 -0.0614777 0)
(-0.05362 -0.0720823 0)
(-0.0755576 -0.0798573 0)
(-0.0992178 -0.0850324 0)
(-0.123872 -0.0878799 0)
(-0.148888 -0.0886964 0)
(-0.173736 -0.0877863 0)
(-0.197976 -0.0854475 0)
(-0.221263 -0.0819606 0)
(-0.243329 -0.0775805 0)
(-0.263979 -0.0725318 0)
(-0.283079 -0.0670061 0)
(-0.300542 -0.0611612 0)
(-0.316319 -0.0551226 0)
(-0.330393 -0.0489851 0)
(-0.342765 -0.0428161 0)
(-0.35345 -0.0366584 0)
(-0.36247 -0.0305341 0)
(-0.369846 -0.0244475 0)
(-0.375599 -0.0183889 0)
(-0.379743 -0.0123379 0)
(-0.382281 -0.00626651 0)
(-0.383207 -0.000142288 0)
(-0.382505 0.00606824 0)
(-0.380145 0.0123964 0)
(-0.376089 0.0188679 0)
(-0.370289 0.0254994 0)
(-0.36269 0.032294 0)
(-0.353237 0.039238 0)
(-0.341876 0.0462959 0)
(-0.328564 0.0534063 0)
(-0.313273 0.0604773 0)
(-0.296003 0.0673832 0)
(-0.276789 0.073961 0)
(-0.255717 0.0800086 0)
(-0.232932 0.0852858 0)
(-0.208656 0.0895164 0)
(-0.183196 0.0923951 0)
(-0.156957 0.0935974 0)
(-0.130447 0.0927937 0)
(-0.104285 0.0896673 0)
(-0.0791906 0.0839356 0)
(-0.0559812 0.0753728 0)
(-0.035531 0.0638318 0)
(-0.0187135 0.0492622 0)
(-0.00662528 0.0317214 0)
(-0.00096509 0.0113934 0)
(-0.000950137 -0.00809848 0)
(-0.00640073 -0.0221896 0)
(-0.0179333 -0.0340989 0)
(-0.0338842 -0.0438266 0)
(-0.0532115 -0.0514375 0)
(-0.0751204 -0.0570476 0)
(-0.0988333 -0.0608149 0)
(-0.123635 -0.0629271 0)
(-0.148898 -0.0635895 0)
(-0.174087 -0.0630141 0)
(-0.198755 -0.0614092 0)
(-0.222542 -0.058972 0)
(-0.245165 -0.0558829 0)
(-0.26641 -0.0523013 0)
(-0.286123 -0.0483641 0)
(-0.3042 -0.0441847 0)
(-0.320577 -0.0398539 0)
(-0.33522 -0.0354408 0)
(-0.348119 -0.0309948 0)
(-0.359276 -0.0265481 0)
(-0.368705 -0.0221177 0)
(-0.376418 -0.0177079 0)
(-0.382431 -0.0133131 0)
(-0.386749 -0.00891968 0)
(-0.389375 -0.00450858 0)
(-0.390299 -5.77263e-05 0)
(-0.389501 0.00445574 0)
(-0.386953 0.009053 0)
(-0.382617 0.0137511 0)
(-0.376446 0.0185601 0)
(-0.368392 0.0234806 0)
(-0.358405 0.0285005 0)
(-0.346443 0.033592 0)
(-0.332472 0.0387087 0)
(-0.316484 0.0437823 0)
(-0.298496 0.0487203 0)
(-0.278566 0.0534044 0)
(-0.256804 0.0576887 0)
(-0.233383 0.0614013 0)
(-0.208548 0.0643462 0)
(-0.182633 0.0663082 0)
(-0.156061 0.0670607 0)
(-0.129353 0.0663751 0)
(-0.103129 0.0640341 0)
(-0.0781018 0.0598457 0)
(-0.0550654 0.053659 0)
(-0.0348595 0.0453783 0)
(-0.0183131 0.034975 0)
(-0.00646505 0.0224946 0)
(-0.000936938 0.00806931 0)
(-0.000940928 -0.00484578 0)
(-0.00634871 -0.0132827 0)
(-0.0178058 -0.0204213 0)
(-0.033678 -0.0262619 0)
(-0.0529464 -0.0308423 0)
(-0.0748345 -0.0342304 0)
(-0.0985788 -0.0365184 0)
(-0.123472 -0.0378164 0)
(-0.148892 -0.0382451 0)
(-0.174299 -0.0379294 0)
(-0.199243 -0.0369926 0)
(-0.223354 -0.0355517 0)
(-0.246338 -0.0337142 0)
(-0.26797 -0.0315753 0)
(-0.288083 -0.0292172 0)
(-0.306563 -0.0267081 0)
(-0.323333 -0.0241029 0)
(-0.338351 -0.0214436 0)
(-0.351597 -0.0187605 0)
(-0.363066 -0.0160733 0)
(-0.372764 -0.0133928 0)
(-0.3807 -0.0107222 0)
(-0.386882 -0.00805845 0)
(-0.391315 -0.00539386 0)
(-0.393997 -0.00271745 0)
(-0.394916 -1.63606e-05 0)
(-0.394053 0.00272267 0)
(-0.391376 0.00551185 0)
(-0.38685 0.00836082 0)
(-0.38043 0.011275 0)
(-0.372071 0.014254 0)
(-0.361728 0.0172896 0)
(-0.349364 0.0203641 0)
(-0.334957 0.0234488 0)
(-0.318508 0.0265015 0)
(-0.300046 0.0294658 0)
(-0.279647 0.0322699 0)
(-0.257436 0.0348257 0)
(-0.233602 0.0370301 0)
(-0.208409 0.0387659 0)
(-0.182205 0.0399054 0)
(-0.155425 0.0403145 0)
(-0.128598 0.039859 0)
(-0.102345 0.038412 0)
(-0.0773704 0.0358621 0)
(-0.0544547 0.0321228 0)
(-0.0344142 0.0271403 0)
(-0.0180488 0.0209003 0)
(-0.00635964 0.0134317 0)
(-0.000918494 0.00481429 0)
(-0.000936435 -0.00161305 0)
(-0.00632328 -0.00442238 0)
(-0.0177434 -0.0068007 0)
(-0.0335767 -0.00874816 0)
(-0.0528159 -0.0102772 0)
(-0.0746932 -0.0114102 0)
(-0.0984521 -0.0121774 0)
(-0.12339 -0.0126151 0)
(-0.148885 -0.0127632 0)
(-0.174399 -0.0126629 0)
(-0.199478 -0.012355 0)
(-0.223748 -0.0118783 0)
(-0.246909 -0.0112685 0)
(-0.268732 -0.0105572 0)
(-0.289043 -0.00977194 0)