/*--------------------------------*- C++ -*----------------------------------*\
  =========                 |
  \\      /  F ield         | OpenFOAM: The Open Source CFD Toolbox
   \\    /   O peration     | Website:  https://openfoam.org
    \\  /    A nd           | Version:  7
     \\/     M anipulation  |
\*---------------------------------------------------------------------------*/
FoamFile
{
    version     2.0;
    format      ascii;
    class       volVectorField;
    location    "0.0362";
    object      U;
}
// * * * * * * * * * * * * * * * * * * * * * * * * * * * * * * * * * * * * * //

dimensions      [0 1 -1 0 0 0 0];

internalField   nonuniform List<vector> 
2500
(
(-0.293813 0.153734 0)
(-0.397964 0.128729 0)
(-0.577991 0.0737908 0)
(-0.696242 0.0408637 0)
(-0.76516 0.0233753 0)
(-0.809405 0.0141162 0)
(-0.839884 0.00912607 0)
(-0.86185 0.00631464 0)
(-0.878339 0.00462298 0)
(-0.891138 0.00353109 0)
(-0.901321 0.00278076 0)
(-0.909572 0.00223801 0)
(-0.916346 0.00182902 0)
(-0.921959 0.00151051 0)
(-0.926637 0.00125555 0)
(-0.930545 0.00104648 0)
(-0.933807 0.000871251 0)
(-0.936514 0.000721301 0)
(-0.938739 0.00059039 0)
(-0.940535 0.000473827 0)
(-0.941942 0.00036799 0)
(-0.942991 0.000270006 0)
(-0.943705 0.000177524 0)
(-0.944098 8.85559e-05 0)
(-0.94418 1.35533e-06 0)
(-0.943953 -8.57126e-05 0)
(-0.943415 -0.000174191 0)
(-0.94256 -0.000265661 0)
(-0.941374 -0.000361818 0)
(-0.93984 -0.00046457 0)
(-0.937931 -0.00057616 0)
(-0.935615 -0.000699332 0)
(-0.932849 -0.000837566 0)
(-0.929577 -0.000995411 0)
(-0.925727 -0.00117899 0)
(-0.921207 -0.00139679 0)
(-0.915893 -0.00166098 0)
(-0.909621 -0.00198965 0)
(-0.902167 -0.00241091 0)
(-0.893215 -0.00297082 0)
(-0.882308 -0.003749 0)
(-0.868758 -0.00489094 0)
(-0.851476 -0.00667533 0)
(-0.828656 -0.00965321 0)
(-0.797281 -0.0149115 0)
(-0.752203 -0.0245034 0)
(-0.682677 -0.0421623 0)
(-0.565023 -0.0746369 0)
(-0.389351 -0.128144 0)
(-0.290213 -0.152378 0)
(-0.00516901 0.302933 0)
(-0.027058 0.30734 0)
(-0.171247 0.217735 0)
(-0.307973 0.146471 0)
(-0.416683 0.0990538 0)
(-0.501652 0.0687555 0)
(-0.567729 0.0494714 0)
(-0.619328 0.0369034 0)
(-0.660136 0.0283972 0)
(-0.692886 0.0224045 0)
(-0.71952 0.018023 0)
(-0.741422 0.0147131 0)
(-0.759591 0.0121405 0)
(-0.774754 0.0100905 0)
(-0.787454 0.00841986 0)
(-0.798098 0.00703001 0)
(-0.806995 0.00585102 0)
(-0.814381 0.00483193 0)
(-0.820441 0.0039347 0)
(-0.825314 0.00313022 0)
(-0.829108 0.00239568 0)
(-0.831904 0.00171273 0)
(-0.833761 0.00106618 0)
(-0.834719 0.000443072 0)
(-0.834804 -0.000168099 0)
(-0.834024 -0.000777967 0)
(-0.832374 -0.0013968 0)
(-0.829837 -0.00203503 0)
(-0.82638 -0.00270375 0)
(-0.821954 -0.00341537 0)
(-0.816494 -0.00418429 0)
(-0.809915 -0.00502794 0)
(-0.802104 -0.00596805 0)
(-0.792922 -0.0070325 0)
(-0.782187 -0.00825803 0)
(-0.769668 -0.00969428 0)
(-0.755064 -0.0114099 0)
(-0.737984 -0.0135024 0)
(-0.717908 -0.0161146 0)
(-0.694138 -0.0194617 0)
(-0.665724 -0.0238792 0)
(-0.631358 -0.0299077 0)
(-0.589215 -0.0384418 0)
(-0.536772 -0.0509916 0)
(-0.470706 -0.0700816 0)
(-0.387164 -0.0996544 0)
(-0.281967 -0.145123 0)
(-0.151638 -0.212675 0)
(-0.0165077 -0.298259 0)
(-0.00100203 -0.29471 0)
(0.0321149 0.264068 0)
(0.0564296 0.362261 0)
(-0.00341288 0.32476 0)
(-0.0954081 0.26018 0)
(-0.191422 0.200396 0)
(-0.279768 0.153254 0)
(-0.356341 0.118229 0)
(-0.420938 0.0925679 0)
(-0.474926 0.073634 0)
(-0.519997 0.0594386 0)
(-0.557714 0.0485858 0)
(-0.589387 0.0401173 0)
(-0.616073 0.0333753 0)
(-0.638607 0.0279034 0)
(-0.657644 0.0233797 0)
(-0.673701 0.0195728 0)
(-0.687183 0.0163131 0)
(-0.698409 0.0134738 0)
(-0.707631 0.0109583 0)
(-0.715044 0.00869148 0)
(-0.720801 0.00661355 0)
(-0.725019 0.00467593 0)
(-0.727783 0.00283803 0)
(-0.729154 0.00106492 0)
(-0.729168 -0.000674535 0)
(-0.72784 -0.00240912 0)
(-0.725165 -0.00416667 0)
(-0.72112 -0.00597534 0)
(-0.71566 -0.00786492 0)
(-0.70872 -0.00986833 0)
(-0.700209 -0.0120235 0)
(-0.690012 -0.0143755 0)
(-0.677979 -0.01698 0)
(-0.663924 -0.0199069 0)
(-0.647612 -0.0232468 0)
(-0.628748 -0.0271188 0)
(-0.606964 -0.0316832 0)
(-0.581796 -0.0371592 0)
(-0.552659 -0.0438522 0)
(-0.51882 -0.0521944 0)
(-0.479363 -0.0628061 0)
(-0.433178 -0.0765829 0)
(-0.378982 -0.0948117 0)
(-0.315466 -0.119293 0)
(-0.241756 -0.152354 0)
(-0.158542 -0.196308 0)
(-0.0701467 -0.251306 0)
(0.0121141 -0.310004 0)
(0.0619482 -0.343355 0)
(0.0330147 -0.249984 0)
(0.0271629 0.205224 0)
(0.0638444 0.357637 0)
(0.0554325 0.375264 0)
(0.00847024 0.337919 0)
(-0.0586706 0.285095 0)
(-0.131672 0.234072 0)
(-0.202394 0.19061 0)
(-0.267074 0.1554 0)
(-0.324462 0.127386 0)
(-0.374562 0.105151 0)
(-0.41793 0.0873971 0)
(-0.455301 0.0730738 0)
(-0.487417 0.0613714 0)
(-0.514953 0.0516779 0)
(-0.538494 0.0435324 0)
(-0.558529 0.0365867 0)
(-0.575468 0.0305753 0)
(-0.589644 0.0252933 0)
(-0.601327 0.0205804 0)
(-0.610737 0.0163094 0)
(-0.618045 0.0123771 0)
(-0.623387 0.00869872 0)
(-0.626862 0.00520233 0)
(-0.628543 0.00182561 0)
(-0.628475 -0.00148724 0)
(-0.626679 -0.00478799 0)
(-0.623153 -0.00812658 0)
(-0.617873 -0.0115532 0)
(-0.610793 -0.0151205 0)
(-0.601842 -0.0188861 0)
(-0.590926 -0.0229151 0)
(-0.577922 -0.0272842 0)
(-0.562676 -0.0320854 0)
(-0.544998 -0.0374327 0)
(-0.524657 -0.0434694 0)
(-0.501374 -0.0503791 0)
(-0.474816 -0.0583997 0)
(-0.44459 -0.0678431 0)
(-0.410239 -0.079121 0)
(-0.371257 -0.0927773 0)
(-0.327116 -0.109525 0)
(-0.27735 -0.130278 0)
(-0.221727 -0.156142 0)
(-0.160589 -0.188288 0)
(-0.0954808 -0.227501 0)
(-0.0302044 -0.272949 0)
(0.0275847 -0.319258 0)
(0.0648766 -0.350832 0)
(0.0656859 -0.332075 0)
(0.0268549 -0.190022 0)
(0.0184734 0.163388 0)
(0.0532247 0.331245 0)
(0.0688706 0.386384 0)
(0.0535324 0.378835 0)
(0.0143564 0.342927 0)
(-0.0379527 0.298236 0)
(-0.0952496 0.254324 0)
(-0.152349 0.215035 0)
(-0.206331 0.181369 0)
(-0.255788 0.153076 0)
(-0.300224 0.129453 0)
(-0.339646 0.109709 0)
(-0.374307 0.0931156 0)
(-0.404567 0.0790553 0)
(-0.430807 0.0670208 0)
(-0.453394 0.0566032 0)
(-0.472661 0.047475 0)
(-0.488895 0.039373 0)
(-0.502346 0.0320844 0)
(-0.513219 0.0254358 0)
(-0.521683 0.0192836 0)
(-0.527873 0.0135071 0)
(-0.531893 0.00800309 0)
(-0.533818 0.00268086 0)
(-0.533699 -0.00254125 0)
(-0.531561 -0.00773918 0)
(-0.527409 -0.012986 0)
(-0.521224 -0.0183547 0)
(-0.512965 -0.023921 0)
(-0.502572 -0.0297664 0)
(-0.489961 -0.0359816 0)
(-0.475025 -0.0426708 0)
(-0.457635 -0.0499566 0)
(-0.437633 -0.0579863 0)
(-0.41484 -0.0669397 0)
(-0.389052 -0.0770385 0)
(-0.360044 -0.0885581 0)
(-0.327586 -0.10184 0)
(-0.291459 -0.117306 0)
(-0.251504 -0.135463 0)
(-0.207694 -0.1569 0)
(-0.160268 -0.182237 0)
(-0.109952 -0.21199 0)
(-0.0583049 -0.246246 0)
(-0.00820247 -0.283977 0)
(0.0355855 -0.321674 0)
(0.0658761 -0.350888 0)
(0.0735176 -0.354428 0)
(0.0532011 -0.30195 0)
(0.0179032 -0.148459 0)
(0.0119778 0.134523 0)
(0.0409683 0.300084 0)
(0.0656876 0.377121 0)
(0.0693103 0.394339 0)
(0.0516034 0.377385 0)
(0.0186057 0.344087 0)
(-0.0234378 0.305215 0)
(-0.069549 0.26656 0)
(-0.116228 0.230835 0)
(-0.161259 0.199026 0)
(-0.203373 0.171227 0)
(-0.241935 0.147129 0)
(-0.276706 0.126267 0)
(-0.307682 0.108156 0)
(-0.334984 0.0923426 0)
(-0.358797 0.0784264 0)
(-0.379324 0.0660655 0)
(-0.396771 0.0549705 0)
(-0.411324 0.0448977 0)
(-0.423152 0.0356417 0)
(-0.432399 0.0270278 0)
(-0.439185 0.0189062 0)
(-0.443604 0.011146 0)
(-0.445731 0.0036313 0)
(-0.445614 -0.00374346 0)
(-0.443285 -0.0110765 0)
(-0.438754 -0.0184622 0)
(-0.432011 -0.0259941 0)
(-0.423032 -0.0337678 0)
(-0.411774 -0.0418847 0)
(-0.398177 -0.0504549 0)
(-0.382168 -0.059602 0)
(-0.36366 -0.0694669 0)
(-0.342559 -0.0802135 0)
(-0.318764 -0.0920339 0)
(-0.292178 -0.105155 0)
(-0.262727 -0.119841 0)
(-0.230375 -0.136398 0)
(-0.195168 -0.155169 0)
(-0.157295 -0.176508 0)
(-0.117172 -0.200734 0)
(-0.0755814 -0.228019 0)
(-0.0338612 -0.258168 0)
(0.00586005 -0.290223 0)
(0.0404238 -0.321761 0)
(0.0655434 -0.34777 0)
(0.0760462 -0.359036 0)
(0.0671838 -0.340268 0)
(0.0401484 -0.269158 0)
(0.0114456 -0.120184 0)
(0.00789624 0.113908 0)
(0.0312355 0.270592 0)
(0.0578134 0.358749 0)
(0.0715277 0.393995 0)
(0.0684753 0.394085 0)
(0.0509881 0.373553 0)
(0.0230169 0.342653 0)
(-0.0114862 0.307912 0)
(-0.0492204 0.273112 0)
(-0.0877313 0.240226 0)
(-0.125337 0.21012 0)
(-0.160965 0.183027 0)
(-0.193979 0.158846 0)
(-0.224047 0.137317 0)
(-0.251031 0.118122 0)
(-0.274915 0.100932 0)
(-0.295757 0.0854393 0)
(-0.313647 0.0713648 0)
(-0.328695 0.0584599 0)
(-0.341012 0.0465066 0)
(-0.350699 0.0353131 0)
(-0.35785 0.0247104 0)
(-0.362543 0.0145482 0)
(-0.36484 0.00469097 0)
(-0.364789 -0.00498563 0)
(-0.362421 -0.0145978 0)
(-0.357755 -0.0242568 0)
(-0.350795 -0.0340719 0)
(-0.341533 -0.0441534 0)
(-0.32995 -0.0546157 0)
(-0.316023 -0.0655799 0)
(-0.299719 -0.0771776 0)
(-0.28101 -0.0895537 0)
(-0.259872 -0.102869 0)
(-0.236297 -0.117304 0)
(-0.210309 -0.133057 0)
(-0.181981 -0.150342 0)
(-0.151468 -0.169377 0)
(-0.119049 -0.190365 0)
(-0.0851848 -0.213444 0)
(-0.0506033 -0.238611 0)
(-0.0163994 -0.265573 0)
(0.0158438 -0.29351 0)
(0.0439492 -0.320694 0)
(0.0651272 -0.343918 0)
(0.0761815 -0.357728 0)
(0.0740842 -0.35357 0)
(0.0573402 -0.319207 0)
(0.0300814 -0.239375 0)
(0.0074496 -0.100284 0)
(0.00545202 0.0987134 0)
(0.024236 0.244587 0)
(0.0496172 0.337092 0)
(0.0680197 0.384388 0)
(0.0742341 0.398244 0)
(0.068203 0.389776 0)
(0.0519178 0.367867 0)
(0.028098 0.338912 0)
(-0.000554818 0.307148 0)
(-0.0317432 0.27518 0)
(-0.0636864 0.24448 0)
(-0.0950903 0.215778 0)
(-0.125063 0.189351 0)
(-0.153023 0.165207 0)
(-0.178613 0.143209 0)
(-0.201635 0.12315 0)
(-0.221997 0.104795 0)
(-0.239676 0.0879076 0)
(-0.25469 0.0722609 0)
(-0.267082 0.0576447 0)
(-0.276906 0.0438663 0)
(-0.284218 0.0307503 0)
(-0.289072 0.0181366 0)
(-0.291516 0.00587827 0)
(-0.29159 -0.00616072 0)
(-0.289326 -0.0181083 0)
(-0.284749 -0.0300865 0)
(-0.277876 -0.0422142 0)
(-0.26872 -0.0546092 0)
(-0.257291 -0.0673908 0)
(-0.243599 -0.0806816 0)
(-0.227662 -0.0946095 0)
(-0.209508 -0.109309 0)
(-0.189188 -0.124921 0)
(-0.166784 -0.141591 0)
(-0.14243 -0.159465 0)
(-0.11633 -0.178677 0)
(-0.0887936 -0.199329 0)
(-0.060268 -0.221456 0)
(-0.0313934 -0.244967 0)
(-0.00305878 -0.269551 0)
(0.0235373 -0.294527 0)
(0.0468384 -0.318624 0)
(0.0649316 -0.339674 0)
(0.0756669 -0.354212 0)
(0.0769958 -0.357033 0)
(0.0675866 -0.340875 0)
(0.047902 -0.29651 0)
(0.0229193 -0.213899 0)
(0.00506997 -0.0858511 0)
(0.00396923 0.0870969 0)
(0.0192862 0.22215 0)
(0.0424229 0.315032 0)
(0.0624818 0.369805 0)
(0.0741798 0.394075 0)
(0.0761448 0.396014 0)
(0.0689543 0.38289 0)
(0.0542163 0.360481 0)
(0.0339148 0.333018 0)
(0.0099782 0.303399 0)
(-0.0159301 0.273493 0)
(-0.0424771 0.244419 0)
(-0.0686495 0.216787 0)
(-0.0937096 0.190872 0)
(-0.117142 0.166736 0)
(-0.138599 0.144317 0)
(-0.157862 0.12348 0)
(-0.1748 0.104057 0)
(-0.189343 0.0858665 0)
(-0.201465 0.0687235 0)
(-0.211166 0.0524503 0)
(-0.218464 0.0368779 0)
(-0.223382 0.0218476 0)
(-0.225951 0.00721034 0)
(-0.226202 -0.0071737 0)
(-0.224163 -0.0214367 0)
(-0.219865 -0.0357045 0)
(-0.213337 -0.0500983 0)
(-0.204613 -0.0647361 0)
(-0.193728 -0.0797335 0)
(-0.180731 -0.0952054 0)
(-0.165681 -0.111265 0)
(-0.148663 -0.128024 0)
(-0.129794 -0.14559 0)
(-0.109235 -0.16406 0)
(-0.0872073 -0.183509 0)
(-0.0640176 -0.203978 0)
(-0.0400787 -0.225444 0)
(-0.0159422 -0.247776 0)
(0.00766821 -0.270675 0)
(0.0298247 -0.293578 0)
(0.0493746 -0.315529 0)
(0.0649483 -0.334994 0)
(0.0750288 -0.349646 0)
(0.078133 -0.356119 0)
(0.0731656 -0.349813 0)
(0.0599383 -0.324877 0)
(0.039904 -0.274595 0)
(0.0178752 -0.192504 0)
(0.00362775 -0.0750143 0)
(0.00303126 0.077889 0)
(0.0157334 0.20284 0)
(0.0364452 0.293889 0)
(0.0565518 0.352885 0)
(0.0712338 0.384659 0)
(0.0785228 0.395081 0)
(0.0780892 0.389882 0)
(0.0706722 0.374022 0)
(0.0575817 0.351438 0)
(0.0403047 0.325062 0)
(0.0202668 0.296961 0)
(-0.00128589 0.268515 0)
(-0.0233281 0.240595 0)
(-0.0450534 0.213706 0)
(-0.0658501 0.188104 0)
(-0.0852684 0.163874 0)
(-0.102988 0.140997 0)
(-0.118787 0.119389 0)
(-0.132521 0.0989273 0)
(-0.144099 0.0794697 0)
(-0.153468 0.0608666 0)
(-0.160604 0.0429677 0)
(-0.165505 0.0256257 0)
(-0.168178 0.0086991 0)
(-0.168642 -0.00794755 0)
(-0.166924 -0.024443 0)
(-0.163055 -0.0409095 0)
(-0.157077 -0.0574635 0)
(-0.149037 -0.0742156 0)
(-0.138998 -0.0912704 0)
(-0.127037 -0.108726 0)
(-0.113255 -0.126674 0)
(-0.097781 -0.145193 0)
(-0.0807854 -0.164348 0)
(-0.0624895 -0.184177 0)
(-0.0431806 -0.204683 0)
(-0.0232287 -0.225809 0)
(-0.00310635 -0.247412 0)
(0.0165926 -0.269216 0)
(0.0351349 -0.290756 0)
(0.0516397 -0.311291 0)
(0.0650873 -0.329698 0)
(0.0743638 -0.344344 0)
(0.0783617 -0.352941 0)
(0.0761723 -0.352424 0)
(0.0673953 -0.338912 0)
(0.0525241 -0.307846 0)
(0.0333958 -0.254434 0)
(0.0142636 -0.174569 0)
(0.00271545 -0.0665991 0)
(0.00240599 0.0703686 0)
(0.0131123 0.186144 0)
(0.0315457 0.274194 0)
(0.0508891 0.335182 0)
(0.0669576 0.372133 0)
(0.0776128 0.389199 0)
(0.082004 0.390797 0)
(0.0802534 0.381039 0)
(0.073112 0.363426 0)
(0.0616392 0.340745 0)
(0.0469766 0.315106 0)
(0.0302111 0.28803 0)
(0.0123032 0.260567 0)
(-0.00594134 0.233402 0)
(-0.0238716 0.206957 0)
(-0.040978 0.181458 0)
(-0.0568722 0.157002 0)
(-0.0712657 0.133593 0)
(-0.08395 0.11118 0)
(-0.0947792 0.0896713 0)
(-0.103655 0.0689577 0)
(-0.110518 0.0489169 0)
(-0.115333 0.0294229 0)
(-0.118089 0.0103495 0)
(-0.118791 -0.008426 0)
(-0.117461 -0.0270217 0)
(-0.114131 -0.0455496 0)
(-0.108848 -0.0641143 0)
(-0.101674 -0.0828126 0)
(-0.0926901 -0.101732 0)
(-0.0819985 -0.120947 0)
(-0.0697297 -0.14052 0)
(-0.0560486 -0.160493 0)
(-0.0411636 -0.180882 0)
(-0.0253362 -0.201665 0)
(-0.00889265 -0.222773 0)
(0.00776407 -0.244058 0)
(0.0241423 -0.265274 0)
(0.0396523 -0.286031 0)
(0.0536027 -0.305743 0)
(0.0652092 -0.323559 0)
(0.0736234 -0.33829 0)
(0.0779939 -0.348315 0)
(0.0775756 -0.351507 0)
(0.071903 -0.345192 0)
(0.0610359 -0.326192 0)
(0.0458219 -0.291025 0)
(0.0281454 -0.236311 0)
(0.0116081 -0.159468 0)
(0.00210807 -0.0598804 0)
(0.00196633 0.0640839 0)
(0.0111159 0.171608 0)
(0.0275101 0.2561 0)
(0.045708 0.317591 0)
(0.0621603 0.35794 0)
(0.0747868 0.380051 0)
(0.0824797 0.387276 0)
(0.0849571 0.382948 0)
(0.0825436 0.370082 0)
(0.0759279 0.351223 0)
(0.0659703 0.328408 0)
(0.0535677 0.303203 0)
(0.0395699 0.276759 0)
(0.0247335 0.24989 0)
(0.00970328 0.223146 0)
(-0.00498966 0.196879 0)
(-0.0189197 0.171288 0)
(-0.0317543 0.14647 0)
(-0.0432392 0.122443 0)
(-0.0531857 0.099177 0)
(-0.0614576 0.0766067 0)
(-0.0679616 0.0546464 0)
(-0.0726384 0.0331984 0)
(-0.0754569 0.0121596 0)
(-0.0764092 -0.00857356 0)
(-0.0755078 -0.0291021 0)
(-0.0727846 -0.0495214 0)
(-0.0682901 -0.0699188 0)
(-0.0620951 -0.0903717 0)
(-0.0542932 -0.110944 0)
(-0.0450041 -0.131686 0)
(-0.0343786 -0.152623 0)
(-0.0226047 -0.17376 0)
(-0.00991392 -0.195061 0)
(0.00341057 -0.21645 0)
(0.0170263 -0.237787 0)
(0.0305243 -0.25885 0)
(0.0434235 -0.279309 0)
(0.0551703 -0.29869 0)
(0.0651452 -0.316331 0)
(0.0726822 -0.331335 0)
(0.0771083 -0.342511 0)
(0.077809 -0.348329 0)
(0.0743303 -0.346882 0)
(0.0665222 -0.335901 0)
(0.0547222 -0.312836 0)
(0.0399209 -0.275058 0)
(0.0238831 -0.220204 0)
(0.00959635 -0.146673 0)
(0.00168257 -0.0544001 0)
(0.00164161 0.0587413 0)
(0.00954544 0.158871 0)
(0.0241399 0.2396 0)
(0.0410324 0.300624 0)
(0.0572442 0.343047 0)
(0.0708609 0.368882 0)
(0.080686 0.380646 0)
(0.0861948 0.380998 0)
(0.0874072 0.372476 0)
(0.0847141 0.357337 0)
(0.0787232 0.337482 0)
(0.0701398 0.314443 0)
(0.059682 0.289411 0)
(0.0480274 0.263277 0)
(0.0357822 0.236686 0)
(0.0234688 0.210086 0)
(0.0115235 0.18377 0)
(0.00030185 0.157916 0)
(-0.00991389 0.132613 0)
(-0.0189047 0.107892 0)
(-0.0265055 0.0837353 0)
(-0.032597 0.0600993 0)
(-0.0370978 0.0369196 0)
(-0.0399593 0.0141217 0)
(-0.0411604 -0.00837371 0)
(-0.0407057 -0.030645 0)
(-0.0386227 -0.0527662 0)
(-0.0349622 -0.0748028 0)
(-0.0297991 -0.0968086 0)
(-0.0232338 -0.118822 0)
(-0.0153957 -0.140861 0)
(-0.00644662 -0.16292 0)
(0.0034144 -0.184959 0)
(0.0139461 -0.206899 0)
(0.0248601 -0.228609 0)
(0.035816 -0.249891 0)
(0.0464186 -0.270462 0)
(0.0562184 -0.28993 0)
(0.0647165 -0.307765 0)
(0.0713781 -0.32327 0)
(0.0756587 -0.335541 0)
(0.0770453 -0.343437 0)
(0.07512 -0.345559 0)
(0.0696469 -0.340239 0)
(0.0606853 -0.325588 0)
(0.0487197 -0.299584 0)
(0.0347579 -0.260262 0)
(0.020375 -0.20598 0)
(0.00802598 -0.13577 0)
(0.00137024 -0.049859 0)
(0.00139124 0.0541442 0)
(0.0082717 0.147655 0)
(0.0212744 0.22462 0)
(0.0368128 0.284564 0)
(0.0523955 0.328099 0)
(0.0663151 0.356605 0)
(0.077386 0.371952 0)
(0.0849561 0.376241 0)
(0.0888408 0.371578 0)
(0.0892045 0.35992 0)
(0.0864436 0.342995 0)
(0.0810868 0.322255 0)
(0.0737176 0.29888 0)
(0.0649196 0.273796 0)
(0.0552404 0.247711 0)
(0.0451717 0.221142 0)
(0.03514 0.194459 0)
(0.0255046 0.16791 0)
(0.016561 0.141652 0)
(0.00854588 0.11577 0)
(0.0016436 0.0903006 0)
(-0.00400723 0.0652401 0)
(-0.00830795 0.0405619 0)
(-0.0111949 0.0162234 0)
(-0.0126353 -0.00782612 0)
(-0.0126247 -0.031639 0)
(-0.011185 -0.055264 0)
(-0.00836414 -0.0787417 0)
(-0.00423631 -0.1021 0)
(0.00109664 -0.125348 0)
(0.00750304 -0.148473 0)
(0.0148186 -0.171434 0)
(0.0228432 -0.194154 0)
(0.0313377 -0.216509 0)
(0.0400213 -0.238324 0)
(0.0485693 -0.259351 0)
(0.0566145 -0.279259 0)
(0.0637504 -0.297615 0)
(0.0695415 -0.31386 0)
(0.0735397 -0.327286 0)
(0.0753126 -0.337016 0)
(0.0744834 -0.341987 0)
(0.0707874 -0.340944 0)
(0.0641426 -0.332458 0)
(0.0547354 -0.314971 0)
(0.0431101 -0.286897 0)
(0.0302215 -0.246775 0)
(0.0174362 -0.193473 0)
(0.00676405 -0.12644 0)
(0.00113129 -0.046055 0)
(0.00119087 0.0501564 0)
(0.00720876 0.137746 0)
(0.0187906 0.211071 0)
(0.0329784 0.269569 0)
(0.0476894 0.313532 0)
(0.0614285 0.343884 0)
(0.0730774 0.36201 0)
(0.0819339 0.369552 0)
(0.0876863 0.368237 0)
(0.0903358 0.359744 0)
(0.0901107 0.345609 0)
(0.0873868 0.327178 0)
(0.0826212 0.305585 0)
(0.0763001 0.28176 0)
(0.068902 0.256439 0)
(0.0608739 0.23019 0)
(0.0526169 0.20344 0)
(0.0444801 0.176497 0)
(0.0367587 0.149574 0)
(0.029696 0.122811 0)
(0.0234869 0.0962898 0)
(0.0182824 0.070052 0)
(0.0141937 0.0441083 0)
(0.0112961 0.0184499 0)
(0.00963285 -0.0069432 0)
(0.00921726 -0.0320947 0)
(0.0100344 -0.0570263 0)
(0.012042 -0.0817512 0)
(0.0151701 -0.106269 0)
(0.0193207 -0.130562 0)
(0.0243658 -0.154584 0)
(0.0301462 -0.178261 0)
(0.0364691 -0.20148 0)
(0.0431065 -0.22408 0)
(0.0497947 -0.245844 0)
(0.0562345 -0.266489 0)
(0.0620942 -0.285649 0)
(0.0670167 -0.302864 0)
(0.0706307 -0.317563 0)
(0.0725696 -0.32905 0)
(0.072498 -0.336494 0)
(0.0701489 -0.338922 0)
(0.0653706 -0.335227 0)
(0.0581827 -0.324192 0)
(0.0488391 -0.304549 0)
(0.0378879 -0.275059 0)
(0.0261953 -0.23464 0)
(0.0149255 -0.182528 0)
(0.00572145 -0.118445 0)
(0.000941645 -0.0428477 0)
(0.00102525 0.0466811 0)
(0.00629835 0.128985 0)
(0.0165955 0.198865 0)
(0.0294586 0.255724 0)
(0.0431452 0.299637 0)
(0.0563618 0.331208 0)
(0.0680854 0.351449 0)
(0.0776144 0.361638 0)
(0.0845672 0.363182 0)
(0.0888337 0.357503 0)
(0.0905142 0.345951 0)
(0.0898588 0.32975 0)
(0.0872119 0.309972 0)
(0.0829667 0.28752 0)
(0.0775296 0.263141 0)
(0.0712952 0.23743 0)
(0.0646294 0.210855 0)
(0.05786 0.18377 0)
(0.0512718 0.156438 0)
(0.0451055 0.129044 0)
(0.0395586 0.101715 0)
(0.0347879 0.0745343 0)
(0.0309124 0.047549 0)
(0.0280162 0.0207848 0)
(0.026151 -0.00574685 0)
(0.0253386 -0.0320402 0)
(0.0255718 -0.0580886 0)
(0.026816 -0.0838775 0)
(0.0290087 -0.109379 0)
(0.0320597 -0.134544 0)
(0.03585 -0.1593 0)
(0.0402311 -0.183539 0)
(0.045024 -0.207116 0)
(0.0500189 -0.229838 0)
(0.0549755 -0.251455 0)
(0.0596258 -0.271654 0)
(0.0636778 -0.290047 0)
(0.0668246 -0.306158 0)
(0.0687562 -0.31942 0)
(0.0691776 -0.32916 0)
(0.0678341 -0.334602 0)
(0.0645426 -0.334866 0)
(0.0592303 -0.328983 0)
(0.0519781 -0.315928 0)
(0.0430655 -0.294669 0)
(0.03301 -0.264243 0)
(0.0225742 -0.223857 0)
(0.0127365 -0.173009 0)
(0.00483698 -0.111604 0)
(0.000786085 -0.0401379 0)
(0.000884397 0.0436486 0)
(0.00549997 0.121249 0)
(0.0146198 0.187927 0)
(0.0261912 0.243072 0)
(0.0387563 0.286618 0)
(0.0512059 0.318936 0)
(0.062624 0.340757 0)
(0.0723414 0.353072 0)
(0.0799474 0.357022 0)
(0.0852612 0.353802 0)
(0.0882904 0.344589 0)
(0.0891854 0.330485 0)
(0.0881951 0.312481 0)
(0.0856282 0.291446 0)
(0.0818209 0.268113 0)
(0.0771126 0.243093 0)
(0.0718287 0.216878 0)
(0.0662684 0.189857 0)
(0.0606984 0.16233 0)
(0.0553494 0.134525 0)
(0.0504147 0.106608 0)
(0.0460517 0.0786989 0)
(0.0423827 0.0508805 0)
(0.0394971 0.0232116 0)
(0.0374536 -0.00426536 0)
(0.0362812 -0.0315155 0)
(0.0359813 -0.0585038 0)
(0.036528 -0.0851884 0)
(0.0378688 -0.111514 0)
(0.0399244 -0.137404 0)
(0.0425886 -0.162757 0)
(0.0457283 -0.187437 0)
(0.0491828 -0.21127 0)
(0.0527649 -0.234034 0)
(0.0562622 -0.255454 0)
(0.0594403 -0.275195 0)
(0.0620485 -0.292852 0)
(0.0638277 -0.307947 0)
(0.0645231 -0.319921 0)
(0.0639011 -0.328134 0)
(0.0617706 -0.331865 0)
(0.0580101 -0.330323 0)
(0.0525983 -0.322665 0)
(0.0456467 -0.308028 0)
(0.0374321 -0.285574 0)
(0.0284213 -0.254558 0)
(0.0192696 -0.214405 0)
(0.0107887 -0.164802 0)
(0.00406763 -0.10578 0)
(0.000654565 -0.0378539 0)
(0.000761566 0.0410072 0)
(0.00478488 0.114446 0)
(0.0128113 0.178191 0)
(0.023124 0.231635 0)
(0.0345052 0.274614 0)
(0.0460113 0.307333 0)
(0.0568358 0.330313 0)
(0.0663607 0.344316 0)
(0.0741746 0.350264 0)
(0.0800577 0.349163 0)
(0.0839535 0.34203 0)
(0.0859365 0.329849 0)
(0.0861774 0.313532 0)
(0.0849111 0.293897 0)
(0.082409 0.271659 0)
(0.0789563 0.247425 0)
(0.0748352 0.221701 0)
(0.0703124 0.194902 0)
(0.065631 0.167358 0)
(0.0610061 0.139328 0)
(0.0566219 0.111014 0)
(0.0526313 0.0825669 0)
(0.0491561 0.054104 0)
(0.0462883 0.0257141 0)
(0.044091 -0.00253087 0)
(0.0426002 -0.0305681 0)
(0.0418252 -0.0583357 0)
(0.04175 -0.0857655 0)
(0.0423333 -0.112776 0)
(0.0435092 -0.139265 0)
(0.0451872 -0.165105 0)
(0.0472523 -0.190135 0)
(0.0495655 -0.214155 0)
(0.0519651 -0.23692 0)
(0.0542686 -0.258134 0)
(0.0562763 -0.277444 0)
(0.0577773 -0.294438 0)
(0.058557 -0.308637 0)
(0.058409 -0.319497 0)
(0.0571498 -0.326412 0)
(0.0546371 -0.328715 0)
(0.0507922 -0.325696 0)
(0.0456234 -0.316621 0)
(0.0392511 -0.300761 0)
(0.0319301 -0.277437 0)
(0.0240662 -0.246072 0)
(0.0162087 -0.206257 0)
(0.00902146 -0.157817 0)
(0.00338255 -0.100873 0)
(0.000540236 -0.0359438 0)
(0.000652038 0.0387187 0)
(0.00413228 0.108504 0)
(0.0111305 0.169604 0)
(0.0202146 0.22142 0)
(0.0303715 0.263724 0)
(0.0408053 0.296599 0)
(0.0508171 0.320407 0)
(0.0598507 0.335734 0)
(0.0675133 0.343326 0)
(0.0735691 0.344025 0)
(0.0779212 0.338713 0)
(0.0805887 0.328263 0)
(0.0816802 0.313509 0)
(0.0813683 0.295216 0)
(0.0798665 0.27407 0)
(0.0774088 0.250669 0)
(0.0742345 0.225523 0)
(0.0705756 0.199062 0)
(0.0666487 0.171637 0)
(0.0626491 0.143535 0)
(0.0587479 0.114984 0)
(0.0550896 0.0861651 0)
(0.0517923 0.0572238 0)
(0.0489478 0.0282767 0)
(0.046622 -0.000577393 0)
(0.0448562 -0.0292499 0)
(0.0436674 -0.057654 0)
(0.0430497 -0.0856971 0)
(0.0429742 -0.113274 0)
(0.0433895 -0.140259 0)
(0.0442227 -0.166501 0)
(0.0453788 -0.191817 0)
(0.0467426 -0.215984 0)
(0.0481793 -0.238739 0)
(0.049537 -0.259768 0)
(0.0506503 -0.278707 0)
(0.0513458 -0.295136 0)
(0.051449 -0.308582 0)
(0.050795 -0.318517 0)
(0.0492403 -0.324365 0)
(0.0466787 -0.32551 0)
(0.0430588 -0.32131 0)
(0.0384021 -0.311124 0)
(0.0328222 -0.294333 0)
(0.02654 -0.270383 0)
(0.0198941 -0.23883 0)
(0.0133329 -0.199388 0)
(0.00738874 -0.151986 0)
(0.00275925 -0.0968054 0)
(0.000438292 -0.0343696 0)
(0.000552425 0.0367542 0)
(0.00352686 0.103368 0)
(0.00954763 0.162124 0)
(0.017429 0.212431 0)
(0.0263351 0.254018 0)
(0.0356023 0.286882 0)
(0.0446347 0.311266 0)
(0.0529433 0.32762 0)
(0.060167 0.336547 0)
(0.0660711 0.338756 0)
(0.0705364 0.335012 0)
(0.0735437 0.326092 0)
(0.0751538 0.312754 0)
(0.0754884 0.295713 0)
(0.0747103 0.27562 0)
(0.073007 0.253058 0)
(0.0705763 0.228536 0)
(0.0676154 0.202489 0)
(0.0643124 0.175285 0)
(0.0608407 0.14723 0)
(0.0573547 0.118574 0)
(0.053988 0.0895227 0)
(0.0508521 0.0602459 0)
(0.0480361 0.0308844 0)
(0.0456067 0.00156059 0)
(0.0436095 -0.0276139 0)
(0.0420685 -0.0565298 0)
(0.0409875 -0.0850729 0)
(0.0403502 -0.113116 0)
(0.040121 -0.140515 0)
(0.040245 -0.167096 0)
(0.0406489 -0.192656 0)
(0.0412417 -0.216957 0)
(0.0419162 -0.239716 0)
(0.0425509 -0.260607 0)
(0.0430136 -0.279255 0)
(0.0431655 -0.295239 0)
(0.0428681 -0.308089 0)
(0.0419911 -0.317291 0)
(0.0404227 -0.322298 0)
(0.0380821 -0.322535 0)
(0.0349331 -0.317421 0)
(0.0309987 -0.306385 0)
(0.0263741 -0.288898 0)
(0.0212384 -0.264504 0)
(0.0158614 -0.23286 0)
(0.0105956 -0.193775 0)
(0.00585525 -0.147253 0)
(0.00218101 -0.0935214 0)
(0.000345273 -0.0331035 0)
(0.000460238 0.0350919 0)
(0.0029571 0.0989986 0)
(0.00803963 0.155716 0)
(0.0147398 0.204665 0)
(0.0223778 0.245546 0)
(0.0304093 0.278295 0)
(0.0383359 0.303065 0)
(0.0457383 0.320202 0)
(0.0522956 0.330199 0)
(0.0577863 0.333657 0)
(0.0620832 0.331241 0)
(0.0651423 0.323647 0)
(0.0669894 0.311566 0)
(0.0677047 0.295661 0)
(0.0674082 0.276553 0)
(0.0662454 0.254804 0)
(0.0643755 0.230916 0)
(0.0619615 0.205326 0)
(0.0591625 0.178412 0)
(0.0561282 0.150493 0)
(0.0529947 0.121837 0)
(0.049882 0.0926678 0)
(0.0468926 0.0631758 0)
(0.0441109 0.033522 0)
(0.041603 0.00384897 0)
(0.0394169 -0.025712 0)
(0.0375829 -0.0550325 0)
(0.0361141 -0.0839795 0)
(0.0350068 -0.112408 0)
(0.0342409 -0.140154 0)
(0.0337803 -0.16703 0)
(0.0335734 -0.192815 0)
(0.0335541 -0.217253 0)
(0.0336424 -0.24005 0)
(0.0337468 -0.260868 0)
(0.0337664 -0.279324 0)
(0.0335948 -0.294993 0)
(0.0331249 -0.30741 0)
(0.0322557 -0.316074 0)
(0.0309 -0.320458 0)
(0.0289942 -0.320021 0)
(0.0265085 -0.314227 0)
(0.0234577 -0.302565 0)
(0.0199116 -0.284571 0)
(0.0160029 -0.259866 0)
(0.0119317 -0.228182 0)
(0.00795964 -0.1894 0)
(0.00439384 -0.143579 0)
(0.00163528 -0.0909794 0)
(0.000258634 -0.0321256 0)
(0.000373593 0.0337155 0)
(0.00241417 0.0953625 0)
(0.00658848 0.150354 0)
(0.012125 0.19812 0)
(0.0184837 0.238345 0)
(0.0252291 0.27092 0)
(0.0319552 0.295937 0)
(0.038313 0.31366 0)
(0.0440269 0.324499 0)
(0.0488978 0.328969 0)
(0.0528005 0.327657 0)
(0.0556775 0.321187 0)
(0.0575294 0.310193 0)
(0.0584041 0.295295 0)
(0.058385 0.27708 0)
(0.0575807 0.256091 0)
(0.0561146 0.23282 0)
(0.054117 0.207702 0)
(0.051718 0.181119 0)
(0.0490429 0.153398 0)
(0.0462079 0.12482 0)
(0.0433176 0.0956248 0)
(0.040464 0.0660169 0)
(0.0377247 0.0361738 0)
(0.0351633 0.00625436 0)
(0.0328293 -0.0235941 0)
(0.0307579 -0.0532275 0)
(0.0289709 -0.0824974 0)
(0.0274765 -0.111244 0)
(0.0262701 -0.139289 0)
(0.0253341 -0.166429 0)
(0.0246387 -0.192431 0)
(0.0241424 -0.217027 0)
(0.0237921 -0.23991 0)
(0.0235253 -0.260733 0)
(0.0232709 -0.279105 0)
(0.0229524 -0.294599 0)
(0.0224911 -0.306751 0)
(0.0218106 -0.315068 0)
(0.0208431 -0.319038 0)
(0.0195358 -0.318144 0)
(0.0178588 -0.311884 0)
(0.0158127 -0.299787 0)
(0.0134365 -0.281441 0)
(0.0108136 -0.256521 0)
(0.00807488 -0.224813 0)
(0.00539545 -0.186251 0)
(0.00298333 -0.140934 0)
(0.00111241 -0.0891498 0)
(0.000176458 -0.0314215 0)
(0.000291026 0.0326127 0)
(0.00189109 0.0924361 0)
(0.00517975 0.146015 0)
(0.00956642 0.192792 0)
(0.014639 0.232439 0)
(0.0200623 0.26482 0)
(0.0255185 0.289981 0)
(0.0307285 0.30813 0)
(0.0354654 0.319614 0)
(0.0395584 0.324883 0)
(0.0428922 0.324462 0)
(0.0454041 0.318919 0)
(0.0470775 0.308839 0)
(0.0479348 0.294806 0)
(0.0480293 0.277376 0)
(0.0474365 0.257074 0)
(0.0462471 0.23438 0)
(0.0445602 0.209723 0)
(0.0424775 0.183487 0)
(0.0400994 0.156003 0)
(0.0375212 0.127562 0)
(0.0348312 0.0984116 0)
(0.0321085 0.0687686 0)
(0.029423 0.0388225 0)
(0.0268341 0.00874409 0)
(0.0243912 -0.0213069 0)
(0.0221335 -0.0511745 0)
(0.0200902 -0.0806986 0)
(0.0182811 -0.109708 0)
(0.016716 -0.138013 0)
(0.0153959 -0.165399 0)
(0.0143122 -0.191624 0)
(0.0134473 -0.216408 0)
(0.012775 -0.239434 0)
(0.0122604 -0.260348 0)
(0.0118614 -0.278752 0)
(0.0115294 -0.294215 0)
(0.0112114 -0.306269 0)
(0.010853 -0.314427 0)
(0.0104016 -0.318184 0)
(0.00981104 -0.317037 0)
(0.00904681 -0.310504 0)
(0.00809137 -0.298142 0)
(0.0069497 -0.279571 0)
(0.00565395 -0.254502 0)
(0.00426666 -0.222762 0)
(0.00287937 -0.184318 0)
(0.00160695 -0.1393 0)
(0.000604851 -0.088012 0)
(9.72564e-05 -0.0309812 0)
(0.000211357 0.0317746 0)
(0.00138219 0.0902018 0)
(0.00380149 0.142686 0)
(0.00704877 0.188679 0)
(0.0108312 0.227847 0)
(0.0149079 0.260039 0)
(0.0190457 0.28527 0)
(0.0230346 0.303713 0)
(0.0266985 0.315669 0)
(0.0298988 0.321542 0)
(0.0325358 0.321811 0)
(0.0345474 0.317002 0)
(0.0359061 0.307662 0)
(0.0366145 0.294343 0)
(0.0366999 0.277578 0)
(0.0362088 0.257873 0)
(0.0352017 0.235696 0)
(0.0337478 0.211472 0)
(0.0319212 0.185579 0)
(0.0297971 0.158354 0)
(0.0274494 0.130088 0)
(0.0249486 0.101037 0)
(0.0223603 0.0714249 0)
(0.0197446 0.041448 0)
(0.0171555 0.0112859 0)
(0.0146411 -0.0188938 0)
(0.0122431 -0.0489269 0)
(0.00999737 -0.0786454 0)
(0.00793374 -0.10787 0)
(0.00607637 -0.136404 0)
(0.00444355 -0.164026 0)
(0.00304758 -0.190484 0)
(0.00189457 -0.215491 0)
(0.000984044 -0.238725 0)
(0.000308689 -0.25982 0)
(-0.000145952 -0.278375 0)
(-0.000401512 -0.29395 0)
(-0.000486502 -0.306076 0)
(-0.000435539 -0.314259 0)
(-0.000287948 -0.317996 0)
(-8.56817e-05 -0.31679 0)
(0.000129469 -0.310164 0)
(0.000319325 -0.297689 0)
(0.000453052 -0.279003 0)
(0.000510853 -0.253836 0)
(0.000487153 -0.222036 0)
(0.000392124 -0.183596 0)
(0.000251125 -0.138662 0)
(0.000106496 -0.0875529 0)
(1.98348e-05 -0.0307986 0)
(0.000133584 0.031195 0)
(0.000882567 0.0886474 0)
(0.00244331 0.140355 0)
(0.0045584 0.185776 0)
(0.00704871 0.224579 0)
(0.00976362 0.256605 0)
(0.0125521 0.281854 0)
(0.0152727 0.300478 0)
(0.0178009 0.31275 0)
(0.0200332 0.319046 0)
(0.0218888 0.319813 0)
(0.0233106 0.315548 0)
(0.0242643 0.306772 0)
(0.0247365 0.294012 0)
(0.0247323 0.277782 0)
(0.0242718 0.258572 0)
(0.023387 0.236841 0)
(0.0221188 0.213004 0)
(0.0205139 0.187437 0)
(0.0186224 0.160475 0)
(0.0164963 0.13241 0)
(0.0141872 0.103501 0)
(0.0117461 0.0739724 0)