/*--------------------------------*- C++ -*----------------------------------*\
  =========                 |
  \\      /  F ield         | OpenFOAM: The Open Source CFD Toolbox
   \\    /   O peration     | Website:  https://openfoam.org
    \\  /    A nd           | Version:  7
     \\/     M anipulation  |
\*---------------------------------------------------------------------------*/
FoamFile
{
    version     2.0;
    format      ascii;
    class       surfaceScalarField;
    location    "0.0154";
    object      phi;
}
// * * * * * * * * * * * * * * * * * * * * * * * * * * * * * * * * * * * * * //

dimensions      [0 3 -1 0 0 0 0];

internalField   nonuniform List<scalar> 
4900
(
5.45697e-06
-5.45697e-06
9.95756e-06
-4.5006e-06
1.26978e-05
-2.74027e-06
1.44122e-05
-1.71437e-06
1.55212e-05
-1.10894e-06
1.62641e-05
-7.42901e-07
1.67825e-05
-5.18401e-07
1.71585e-05
-3.76057e-07
1.744e-05
-2.81535e-07
1.76559e-05
-2.15842e-07
1.78243e-05
-1.68387e-07
1.79573e-05
-1.33034e-07
1.80634e-05
-1.06064e-07
1.81485e-05
-8.51121e-08
1.82171e-05
-6.86056e-08
1.82725e-05
-5.54529e-08
1.83174e-05
-4.48691e-08
1.83537e-05
-3.62726e-08
1.83829e-05
-2.92209e-08
1.84063e-05
-2.33694e-08
1.84247e-05
-1.84439e-08
1.84389e-05
-1.42209e-08
1.84495e-05
-1.05141e-08
1.84566e-05
-7.16341e-09
1.84606e-05
-4.02621e-09
1.84616e-05
-9.70582e-10
1.84595e-05
2.13196e-09
1.84541e-05
5.41147e-09
1.84451e-05
9.00731e-09
1.8432e-05
1.30744e-08
1.84142e-05
1.77917e-08
1.83908e-05
2.33727e-08
1.83607e-05
3.00789e-08
1.83225e-05
3.82389e-08
1.82742e-05
4.82754e-08
1.82135e-05
6.07459e-08
1.81371e-05
7.64054e-08
1.80408e-05
9.63086e-08
1.79188e-05
1.21981e-07
1.77631e-05
1.55721e-07
1.75619e-05
2.01155e-07
1.72976e-05
2.64295e-07
1.6942e-05
3.55631e-07
1.64477e-05
4.94271e-07
1.57321e-05
7.15625e-07
1.46488e-05
1.08329e-06
1.29428e-05
1.70605e-06
1.01631e-05
2.77966e-06
5.55883e-06
4.60426e-06
5.55883e-06
-1.171e-07
-5.33987e-06
1.8336e-06
-6.4513e-06
4.40893e-06
-5.31561e-06
6.71174e-06
-4.01718e-06
8.57148e-06
-2.96869e-06
1.00272e-05
-2.19864e-06
1.11597e-05
-1.65085e-06
1.20441e-05
-1.26054e-06
1.27404e-05
-9.77793e-07
1.32932e-05
-7.68673e-07
1.37357e-05
-6.10816e-07
1.40921e-05
-4.89463e-07
1.43807e-05
-3.94718e-07
1.46154e-05
-3.19794e-07
1.48067e-05
-2.59914e-07
1.49629e-05
-2.11619e-07
1.50904e-05
-1.72346e-07
1.51943e-05
-1.40147e-07
1.52785e-05
-1.1351e-07
1.53464e-05
-9.12396e-08
1.54003e-05
-7.23682e-08
1.54422e-05
-5.60988e-08
1.54735e-05
-4.17581e-08
1.54951e-05
-2.87616e-08
1.55076e-05
-1.65851e-08
1.55114e-05
-4.73971e-09
1.55063e-05
7.24967e-09
1.54918e-05
1.98675e-08
1.54672e-05
3.3628e-08
1.54312e-05
4.9101e-08
1.5382e-05
6.694e-08
1.53175e-05
8.79174e-08
1.52346e-05
1.12971e-07
1.51296e-05
1.43263e-07
1.49976e-05
1.80273e-07
1.48324e-05
2.25918e-07
1.4626e-05
2.82744e-07
1.43681e-05
3.54214e-07
1.4045e-05
4.45164e-07
1.36382e-05
5.62527e-07
1.31228e-05
7.16527e-07
1.24645e-05
9.22605e-07
1.16156e-05
1.20451e-06
1.05109e-05
1.59894e-06
9.06545e-06
2.1611e-06
7.18371e-06
2.96503e-06
4.81074e-06
4.07902e-06
2.11365e-06
5.47675e-06
9.93782e-09
6.70797e-06
5.56877e-06
-1.0827e-06
-4.25717e-06
-7.60197e-07
-6.7738e-06
5.69174e-07
-6.64498e-06
2.25778e-06
-5.70578e-06
3.93569e-06
-4.6466e-06
5.44511e-06
-3.70806e-06
6.74e-06
-2.94574e-06
7.82544e-06
-2.34598e-06
8.72563e-06
-1.87798e-06
9.46894e-06
-1.51199e-06
1.0082e-05
-1.22385e-06
1.05876e-05
-9.9513e-07
1.1005e-05
-8.12074e-07
1.13496e-05
-6.64443e-07
1.16343e-05
-5.44553e-07
1.18692e-05
-4.46562e-07
1.20629e-05
-3.65965e-07
1.22219e-05
-2.99227e-07
1.2352e-05
-2.43534e-07
1.24573e-05
-1.96606e-07
1.25415e-05
-1.56567e-07
1.26073e-05
-1.21845e-07
1.26566e-05
-9.10916e-08
1.2691e-05
-6.3123e-08
1.27112e-05
-3.68664e-08
1.27178e-05
-1.13148e-08
1.27106e-05
1.45159e-08
1.26888e-05
4.16279e-08
1.26513e-05
7.10835e-08
1.25964e-05
1.04053e-07
1.25215e-05
1.41867e-07
1.24233e-05
1.86084e-07
1.22977e-05
2.38568e-07
1.21394e-05
3.01602e-07
1.19416e-05
3.78029e-07
1.16961e-05
4.7146e-07
1.13922e-05
5.86556e-07
1.1017e-05
7.29445e-07
1.05539e-05
9.08308e-07
9.98217e-06
1.13422e-06
9.27636e-06
1.42234e-06
8.40564e-06
1.79332e-06
7.33526e-06
2.27489e-06
6.03207e-06
2.90213e-06
4.47998e-06
3.71318e-06
2.71526e-06
4.72976e-06
8.95235e-07
5.89904e-06
-5.89241e-07
6.96122e-06
-1.04262e-06
7.16135e-06
4.52615e-06
-9.16381e-07
-3.34079e-06
-1.35747e-06
-6.33271e-06
-9.75916e-07
-7.02653e-06
-5.21748e-08
-6.62952e-06
1.12049e-06
-5.81927e-06
2.34317e-06
-4.93073e-06
3.50448e-06
-4.10705e-06
4.55339e-06
-3.39488e-06
5.47384e-06
-2.79843e-06
6.26782e-06
-2.30598e-06
6.94554e-06
-1.90156e-06
7.52012e-06
-1.56972e-06
8.00506e-06
-1.29701e-06
8.41295e-06
-1.07233e-06
8.75503e-06
-8.86635e-07
9.04107e-06
-7.32605e-07
9.27942e-06
-6.04311e-07
9.47711e-06
-4.96912e-07
9.63999e-06
-4.06421e-07
9.77291e-06
-3.29519e-07
9.87975e-06
-2.63409e-07
9.9636e-06
-2.05698e-07
1.00268e-05
-1.543e-07
1.0071e-05
-1.07353e-07
1.00973e-05
-6.31544e-08
1.01061e-05
-2.00877e-08
1.00972e-05
2.34321e-08
1.00698e-05
6.90209e-08
1.00225e-05
1.18388e-07
9.95314e-06
1.73403e-07
9.85883e-06
2.36173e-07
9.73579e-06
3.09131e-07
9.57921e-06
3.95147e-07
9.38315e-06
4.97661e-07
9.14031e-06
6.20865e-07
8.84184e-06
7.69926e-07
8.47711e-06
9.51288e-07
8.03351e-06
1.17305e-06
7.49637e-06
1.44544e-06
6.84925e-06
1.78135e-06
6.07483e-06
2.19676e-06
5.15741e-06
2.71074e-06
4.08828e-06
3.34403e-06
2.87636e-06
4.11405e-06
1.56757e-06
5.02197e-06
2.74846e-07
6.02248e-06
-7.87708e-07
6.96159e-06
-1.29473e-06
7.46824e-06
-9.23388e-07
6.79002e-06
3.60276e-06
-6.71293e-07
-2.66949e-06
-1.32296e-06
-5.68104e-06
-1.47558e-06
-6.87392e-06
-1.14391e-06
-6.96119e-06
-4.81832e-07
-6.48135e-06
3.54351e-07
-5.76692e-06
1.2478e-06
-5.0005e-06
2.1243e-06
-4.27138e-06
2.94248e-06
-3.61661e-06
3.68282e-06
-3.04632e-06
4.33916e-06
-2.5579e-06
4.9129e-06
-2.14346e-06
5.40939e-06
-1.7935e-06
5.83574e-06
-1.49869e-06
6.19957e-06
-1.25046e-06
6.50828e-06
-1.04131e-06
6.76873e-06
-8.64758e-07
6.98703e-06
-7.15217e-07
7.16852e-06
-5.8791e-07
7.31772e-06
-4.78722e-07
7.4384e-06
-3.84087e-07
7.53358e-06
-3.00878e-07
7.60559e-06
-2.26314e-07
7.65611e-06
-1.57872e-07
7.68617e-06
-9.32102e-08
7.69617e-06
-3.00882e-08
7.6859e-06
3.37054e-08
7.65449e-06
1.00427e-07
7.60042e-06
1.72457e-07
7.52144e-06
2.52378e-07
7.41455e-06
3.43069e-07
7.27587e-06
4.47805e-07
7.10065e-06
5.70373e-07
6.8831e-06
7.15212e-07
6.61639e-06
8.87573e-07
6.29261e-06
1.09371e-06
5.90283e-06
1.34107e-06
5.43734e-06
1.63853e-06
4.88628e-06
1.9965e-06
4.24076e-06
2.42687e-06
3.49513e-06
2.94239e-06
2.65092e-06
3.55496e-06
1.72337e-06
4.27157e-06
7.51626e-07
5.0858e-06
-1.87628e-07
5.96123e-06
-9.66891e-07
6.80174e-06
-1.40863e-06
7.40334e-06
-1.33015e-06
7.38976e-06
-6.95065e-07
6.15493e-06
2.90769e-06
-4.79994e-07
-2.1895e-06
-1.13383e-06
-5.0272e-06
-1.54122e-06
-6.46653e-06
-1.59424e-06
-6.90818e-06
-1.33738e-06
-6.73821e-06
-8.64201e-07
-6.2401e-06
-2.66833e-07
-5.59787e-06
3.82549e-07
-4.92076e-06
1.0341e-06
-4.26816e-06
1.65657e-06
-3.66879e-06
2.23238e-06
-3.13371e-06
2.75319e-06
-2.66427e-06
3.21664e-06
-2.25695e-06
3.62393e-06
-1.90597e-06
3.97827e-06
-1.6048e-06
4.28388e-06
-1.34692e-06
4.54529e-06
-1.12617e-06
4.76697e-06
-9.36896e-07
4.95308e-06
-7.74014e-07
5.10731e-06
-6.3296e-07
5.23287e-06
-5.09645e-07
5.33238e-06
-4.00386e-07
5.4079e-06
-3.0183e-07
5.4609e-06
-2.10881e-07
5.49231e-06
-1.24618e-07
5.50244e-06
-4.022e-08
5.49103e-06
4.51147e-08
5.45721e-06
1.34248e-07
5.39949e-06
2.30185e-07
5.3157e-06
3.36162e-07
5.20303e-06
4.5574e-07
5.05794e-06
5.92896e-07
4.87618e-06
7.52134e-07
4.65281e-06
9.38583e-07
4.38227e-06
1.15811e-06
4.05857e-06
1.4174e-06
3.67563e-06
1.72401e-06
3.22789e-06
2.08627e-06
2.71136e-06
2.51303e-06
2.12535e-06
3.01289e-06
1.4751e-06
3.59263e-06
7.75812e-07
4.25424e-06
5.80772e-08
4.98931e-06
-6.2557e-07
5.76944e-06
-1.19507e-06
6.53072e-06
-1.54392e-06
7.1506e-06
-1.55914e-06
7.41856e-06
-1.1786e-06
7.00922e-06
-5.08214e-07
5.48455e-06
2.39948e-06
-3.5103e-07
-1.83847e-06
-9.4224e-07
-4.43599e-06
-1.44855e-06
-5.96022e-06
-1.7264e-06
-6.63032e-06
-1.75555e-06
-6.70906e-06
-1.57635e-06
-6.41929e-06
-1.24849e-06
-5.92573e-06
-8.2938e-07
-5.33987e-06
-3.65602e-07
-4.73193e-06
1.08704e-07
-4.1431e-06
5.70403e-07
-3.59541e-06
1.00501e-06
-3.09888e-06
1.40437e-06
-2.65631e-06
1.7647e-06
-2.2663e-06
2.08513e-06
-1.92524e-06
2.36662e-06
-1.62841e-06
2.61114e-06
-1.37069e-06
2.8212e-06
-1.14695e-06
2.99945e-06
-9.5227e-07
3.14849e-06
-7.81993e-07
3.27064e-06
-6.31796e-07
3.36791e-06
-4.97659e-07
3.44191e-06
-3.75827e-07
3.49379e-06
-2.62762e-07
3.52424e-06
-1.55073e-07
3.53347e-06
-4.945e-08
3.52117e-06
5.74142e-08
3.48652e-06
1.689e-07
3.42816e-06
2.88543e-07
3.34421e-06
4.20114e-07
3.23225e-06
5.67698e-07
3.08937e-06
7.35777e-07
2.91222e-06
9.2929e-07
2.69711e-06
1.15369e-06
2.44025e-06
1.41496e-06
2.13809e-06
1.71957e-06
1.7878e-06
2.0743e-06
1.38816e-06
2.48591e-06
9.40788e-07
2.96041e-06
4.51884e-07
3.50179e-06
-6.53212e-08
4.10984e-06
-5.87526e-07
4.77645e-06
-1.07803e-06
5.47982e-06
-1.48428e-06
6.17569e-06
-1.73879e-06
6.78523e-06
-1.76837e-06
7.18018e-06
-1.51911e-06
7.16929e-06
-1.00476e-06
6.49487e-06
-3.78952e-07
4.85874e-06
2.02053e-06
-2.67303e-07
-1.57117e-06
-7.84938e-07
-3.91835e-06
-1.31237e-06
-5.43279e-06
-1.71012e-06
-6.23257e-06
-1.92695e-06
-6.49224e-06
-1.96685e-06
-6.37939e-06
-1.86078e-06
-6.0318e-06
-1.648e-06
-5.55265e-06
-1.36592e-06
-5.01401e-06
-1.04573e-06
-4.46329e-06
-7.11315e-07
-3.92982e-06
-3.79808e-07
-3.43039e-06
-6.2763e-08
-2.97335e-06
2.32582e-07
-2.56165e-06
5.02151e-07
-2.19481e-06
7.44095e-07
-1.87035e-06
9.58051e-07
-1.58465e-06
1.1446e-06
-1.3335e-06
1.30484e-06
-1.11251e-06
1.44012e-06
-9.17276e-07
1.55182e-06
-7.43498e-07
1.6412e-06
-5.87042e-07
1.70932e-06
-4.43939e-07
1.75692e-06
-3.10364e-07
1.78443e-06
-1.8259e-07
1.79193e-06
-5.6941e-08
1.77906e-06
7.02791e-08
1.74511e-06
2.02849e-07
1.68896e-06
3.44699e-07
1.60909e-06
4.9998e-07
1.50367e-06
6.73114e-07
1.3706e-06
8.68851e-07
1.20762e-06
1.09227e-06
1.01254e-06
1.34878e-06
7.83484e-07
1.64401e-06
5.19384e-07
1.98367e-06
2.20553e-07
2.37313e-06
-1.1042e-07
2.81688e-06
-4.67499e-07
3.31749e-06
-8.39704e-07
3.87399e-06
-1.20935e-06
4.47948e-06
-1.55027e-06
5.11737e-06
-1.82668e-06
5.75623e-06
-1.99387e-06
6.34288e-06
-2.00296e-06
6.79432e-06
-1.81278e-06
6.99e-06
-1.41226e-06
6.76877e-06
-8.5422e-07
5.93683e-06
-2.93481e-07
4.298e-06
1.72705e-06
-2.1209e-07
-1.35908e-06
-6.63056e-07
-3.46739e-06
-1.17629e-06
-4.91956e-06
-1.63033e-06
-5.77852e-06
-1.96324e-06
-6.15933e-06
-2.15754e-06
-6.18509e-06
-2.2228e-06
-5.96654e-06
-2.18172e-06
-5.59373e-06
-2.06089e-06
-5.13484e-06
-1.8856e-06
-4.63858e-06
-1.67738e-06
-4.13804e-06
-1.45332e-06
-3.65445e-06
-1.22621e-06
-3.20046e-06
-1.0052e-06
-2.78266e-06
-7.96475e-07
-2.40354e-06
-6.03949e-07
-2.06288e-06
-4.29878e-07
-1.75872e-06
-2.75349e-07
-1.48803e-06
-1.40667e-07
-1.24719e-06
-2.56599e-08
-1.03228e-06
7.0099e-08
-8.39256e-07
1.47119e-07
-6.64061e-07
2.05868e-07
-5.02689e-07
2.46689e-07
-3.51185e-07
2.69732e-07
-2.05633e-07
2.74917e-07
-6.21258e-08
2.6191e-07
8.32867e-08
2.30117e-07
2.34642e-07
1.78701e-07
3.96115e-07
1.06618e-07
5.72063e-07
1.26822e-08
7.6705e-07
-1.04318e-07
9.85851e-07
-2.45472e-07
1.23342e-06
-4.11493e-07
1.5148e-06
-6.02396e-07
1.83492e-06
-8.17031e-07
2.19831e-06
-1.05248e-06
2.60858e-06
-1.30327e-06
3.06767e-06
-1.56043e-06
3.57465e-06
-1.81046e-06
4.12403e-06
-2.03433e-06
4.70335e-06
-2.20693e-06
5.28996e-06
-2.29756e-06
5.84686e-06
-2.2726e-06
6.31793e-06
-2.10166e-06
6.62337e-06
-1.76884e-06
6.65719e-06
-1.28987e-06
6.28979e-06
-7.33008e-07
5.37997e-06
-2.36082e-07
3.80108e-06
1.49096e-06
-1.7434e-07
-1.18474e-06
-5.69456e-07
-3.07227e-06
-1.0543e-06
-4.43471e-06
-1.52776e-06
-5.30507e-06
-1.9278e-06
-5.75929e-06
-2.22596e-06
-5.88692e-06
-2.41759e-06
-5.77491e-06
-2.51229e-06
-5.49904e-06
-2.52658e-06
-5.12054e-06
-2.47899e-06
-4.68617e-06
-2.38712e-06
-4.22991e-06
-2.26625e-06
-3.77533e-06
-2.12886e-06
-3.33785e-06
-1.98465e-06
-2.92687e-06
-1.84087e-06
-2.54731e-06
-1.70276e-06
-2.201e-06
-1.57389e-06
-1.88759e-06
-1.45662e-06
-1.60529e-06
-1.35243e-06
-1.35139e-06
-1.26214e-06
-1.12258e-06
-1.18617e-06
-9.15226e-07
-1.1247e-06
-7.25527e-07
-1.07781e-06
-5.49581e-07
-1.04554e-06
-3.8345e-07
-1.02801e-06
-2.23168e-07
-1.0254e-06
-6.47306e-08
-1.03804e-06
9.5927e-08
-1.06636e-06
2.62958e-07
-1.11087e-06
4.40628e-07
-1.17214e-06
6.33334e-07
-1.25069e-06
8.45594e-07
-1.34685e-06
1.08201e-06
-1.4606e-06
1.34717e-06
-1.59131e-06
1.64551e-06
-1.73742e-06
1.98103e-06
-1.896e-06
2.35689e-06
-2.06224e-06
2.77481e-06
-2.22882e-06
3.23425e-06
-2.38532e-06
3.73115e-06
-2.51762e-06
4.25633e-06
-2.60764e-06
4.79337e-06
-2.6337e-06
5.31603e-06
-2.57206e-06
5.78522e-06
-2.40036e-06
6.14622e-06
-2.10371e-06
6.32673e-06
-1.68395e-06
6.23743e-06
-1.17141e-06
5.77726e-06
-6.36628e-07
4.84518e-06
-1.95991e-07
3.36044e-06
1.29497e-06
-1.47413e-07
-1.03733e-06
-4.96749e-07
-2.72294e-06
-9.4891e-07
-3.98255e-06
-1.42109e-06
-4.83288e-06
-1.85591e-06
-5.32447e-06
-2.22055e-06
-5.52228e-06
-2.50172e-06
-5.49374e-06
-2.6996e-06
-5.30115e-06
-2.82241e-06
-4.99773e-06
-2.88225e-06
-4.62633e-06
-2.89232e-06
-4.21985e-06
-2.8652e-06
-3.80244e-06
-2.81202e-06
-3.39103e-06
-2.74209e-06
-2.99679e-06
-2.66289e-06
-2.62651e-06
-2.58022e-06
-2.28366e-06
-2.49848e-06
-1.96933e-06
-2.42088e-06
-1.68289e-06
-2.34974e-06
-1.42253e-06
-2.28666e-06
-1.18566e-06
-2.23275e-06
-9.6913e-07
-2.18878e-06
-7.69497e-07
-2.15527e-06
-5.83088e-07
-2.13262e-06
-4.06105e-07
-2.12114e-06
-2.34652e-07
-2.12111e-06
-6.47569e-08
-2.13281e-06
1.07632e-07
-2.15651e-06
2.86649e-07
-2.19239e-06
4.76509e-07
-2.24055e-06
6.81497e-07
-2.30088e-06
9.05926e-07
-2.37293e-06
1.15406e-06
-2.45572e-06
1.42996e-06
-2.54751e-06
1.73731e-06
-2.64553e-06
2.07905e-06
-2.74559e-06
2.45695e-06
-2.84172e-06
2.87094e-06
-2.92577e-06
3.31829e-06
-2.98705e-06
3.79243e-06
-3.01225e-06
4.28153e-06
-2.98567e-06
4.76679e-06
-2.89016e-06
5.22052e-06
-2.70919e-06
5.60424e-06
-2.43025e-06
5.86729e-06
-2.05024e-06
5.94671e-06
-1.58223e-06
5.76943e-06
-1.06308e-06
5.25811e-06
-5.59182e-07
4.34128e-06
-1.6668e-07
2.96794e-06
1.12829e-06
-1.27384e-07
-9.09941e-07
-4.39149e-07
-2.41117e-06
-8.58702e-07
-3.563e-06
-1.31838e-06
-4.37321e-06
-1.76707e-06
-4.87577e-06
-2.1714e-06
-5.11796e-06
-2.5134e-06
-5.15174e-06
-2.78693e-06
-5.02763e-06
-2.99385e-06
-4.79081e-06
-3.14081e-06
-4.47937e-06
-3.23678e-06
-4.12388e-06
-3.29137e-06
-3.74785e-06
-3.31382e-06
-3.36858e-06
-3.3124e-06
-2.99821e-06
-3.29421e-06
-2.64471e-06
-3.26509e-06
-2.31278e-06
-3.22976e-06
-2.00466e-06
-3.19191e-06
-1.72074e-06
-3.15439e-06
-1.46006e-06
-3.11935e-06
-1.2207e-06
-3.0884e-06
-1.00008e-06
-3.06275e-06
-7.95149e-07
-3.04328e-06
-6.02561e-07
-3.03063e-06
-4.18746e-07
-3.02531e-06
-2.39982e-07
-3.02763e-06
-6.24354e-08
-3.03781e-06
1.17818e-07
-3.05594e-06
3.04776e-07
-3.08191e-06
5.02483e-07
-3.11541e-06
7.14988e-07
-3.15575e-06
9.46275e-07
-3.20185e-06
1.20015e-06
-3.25195e-06
1.48007e-06
-3.30352e-06
1.78887e-06
-3.35293e-06
2.12847e-06
-3.39529e-06
2.4993e-06
-3.42412e-06
2.89978e-06
-3.43122e-06
3.32539e-06
-3.40658e-06
3.76778e-06
-3.33856e-06
4.21351e-06
-3.21455e-06
4.64278e-06
-3.02215e-06
5.02813e-06
-2.75134e-06
5.33343e-06
-2.39755e-06
5.5135e-06
-1.96587e-06
5.51503e-06
-1.47585e-06
5.2794e-06
-9.65924e-07
4.74818e-06
-4.95784e-07
3.87115e-06
-1.44297e-07
2.61645e-06
9.83997e-07
-1.11919e-07
-7.98022e-07
-3.92528e-07
-2.13056e-06
-7.81331e-07
-3.1742e-06
-1.22274e-06
-3.9318e-06
-1.67206e-06
-4.42645e-06
-2.0973e-06
-4.69272e-06
-2.47843e-06
-4.77061e-06
-2.80537e-06
-4.70069e-06
-3.0754e-06
-4.52077e-06
-3.29082e-06
-4.26395e-06
-3.45689e-06
-3.95782e-06
-3.58034e-06
-3.6244e-06
-3.66835e-06
-3.28058e-06
-3.72784e-06
-2.93873e-06
-3.7651e-06
-2.60744e-06
-3.78564e-06
-2.29224e-06
-3.79411e-06
-1.99619e-06
-3.79435e-06
-1.7205e-06
-3.78947e-06
-1.46494e-06
-3.78195e-06
-1.22822e-06
-3.77372e-06
-1.00831e-06
-3.76627e-06
-8.02594e-07
-3.76075e-06
-6.08085e-07
-3.75798e-06
-4.21513e-07
-3.75855e-06
-2.39409e-07
-3.76282e-06
-5.81642e-08
-3.77093e-06
1.25928e-07
-3.78279e-06
3.16634e-07
-3.79804e-06
5.1773e-07
-3.81599e-06
7.32939e-07
-3.83555e-06
9.65834e-07
-3.8551e-06
1.2197e-06
-3.87236e-06
1.49733e-06
-3.88425e-06
1.80076e-06
-3.88672e-06
2.13093e-06
-3.87458e-06
2.48717e-06
-3.84142e-06
2.86662e-06
-3.77958e-06
3.26355e-06
-3.68027e-06
3.66848e-06
-3.53403e-06
4.06727e-06
-3.33148e-06
4.44023e-06
-3.06466e-06
4.76131e-06
-2.72898e-06
4.99775e-06
-2.32581e-06
5.11033e-06
-1.86558e-06
5.0548e-06
-1.37096e-06
4.78479e-06
-8.79266e-07
4.25648e-06
-4.42883e-07
3.43476e-06
-1.26558e-07
2.30013e-06
8.57439e-07
-9.96031e-08
-6.98419e-07
-3.54052e-07
-1.87611e-06
-7.1459e-07
-2.81366e-06
-1.13515e-06
-3.51124e-06
-1.5769e-06
-3.98469e-06
-2.01016e-06
-4.25946e-06
-2.41444e-06
-4.36633e-06
-2.77739e-06
-4.33774e-06
-3.09319e-06
-4.20498e-06
-3.36081e-06
-3.99633e-06
-3.58247e-06
-3.73616e-06
-3.76233e-06
-3.44453e-06
-3.90555e-06
-3.13736e-06
-4.01756e-06
-2.82671e-06
-4.10367e-06
-2.52133e-06
-4.16877e-06
-2.22714e-06
-4.21719e-06
-1.94777e-06
-4.25266e-06
-1.68503e-06
-4.27833e-06
-1.43926e-06
-4.2968e-06
-1.20975e-06
-4.31017e-06
-9.9494e-07
-4.3201e-06
-7.92665e-07
-4.32787e-06
-6.00317e-07
-4.33442e-06
-4.14965e-07
-4.34038e-06
-2.33447e-07
-4.3461e-06
-5.24414e-08
-4.35165e-06
1.31472e-07
-4.35677e-06
3.21759e-07
-4.3609e-06
5.21859e-07
-4.36307e-06
7.3511e-07
-4.36186e-06
9.64625e-07
-4.35531e-06
1.21315e-06
-4.34081e-06
1.48283e-06
-4.31502e-06
1.77497e-06
-4.27374e-06
2.08966e-06
-4.21191e-06
2.42533e-06
-4.12356e-06
2.77826e-06
-4.00193e-06
3.14193e-06
-3.83982e-06
3.50636e-06
-3.63002e-06
3.85747e-06
-3.36626e-06
4.17647e-06
-3.0444e-06
4.43946e-06
-2.66413e-06
4.61748e-06
-2.23102e-06
4.67721e-06
-1.75867e-06
4.58245e-06
-1.27075e-06
4.29687e-06
-8.0205e-07
3.78779e-06
-3.98029e-07
3.03074e-06
-1.12092e-07
2.01419e-06
7.45346e-07
-8.95598e-08
-6.08859e-07
-3.21802e-07
-1.64387e-06
-6.56708e-07
-2.47875e-06
-1.05569e-06
-3.11226e-06
-1.48506e-06
-3.55532e-06
-1.91772e-06
-3.8268e-06
-2.33364e-06
-3.95041e-06
-2.71936e-06
-3.95202e-06
-3.06705e-06
-3.85729e-06
-3.37328e-06
-3.6901e-06
-3.63785e-06
-3.47159e-06
-3.86273e-06
-3.21964e-06
-4.05126e-06
-2.94884e-06
-4.20741e-06
-2.67056e-06
-4.33542e-06
-2.39332e-06
-4.43941e-06
-2.12315e-06
-4.52323e-06
-1.86395e-06
-4.59034e-06
-1.61792e-06
-4.64375e-06
-1.38586e-06
-4.68601e-06
-1.16748e-06
-4.71927e-06
-9.61685e-07
-4.74523e-06
-7.66705e-07
-4.76523e-06
-5.80319e-07
-4.78024e-06
-3.9995e-07
-4.79091e-06
-2.22775e-07
-4.79755e-06
-4.58015e-08
-4.80014e-06
1.34061e-07
-4.79831e-06
3.19928e-07
-4.79132e-06
5.14866e-07
-4.778e-06
7.21792e-07
-4.75673e-06
9.43353e-07
-4.72534e-06
1.18176e-06
-4.68109e-06
1.43858e-06
-4.62058e-06
1.71446e-06
-4.53976e-06
2.00884e-06
-4.43393e-06
2.3195e-06
-4.29782e-06
2.64215e-06
-4.12583e-06
2.96994e-06
-3.91239e-06
3.29292e-06
-3.65251e-06
3.59759e-06
-3.34265e-06
3.86661e-06
-2.98181e-06
4.07861e-06
-2.57289e-06
4.20857e-06
-2.12424e-06
4.22856e-06
-1.65113e-06
4.10934e-06
-1.17691e-06
3.82264e-06
-7.33304e-07
3.34418e-06
-3.59569e-07
2.65701e-06
-1.00055e-07
1.75467e-06
6.45292e-07
-8.12335e-08
-5.27626e-07
-2.94485e-07
-1.43062e-06
-6.06364e-07
-2.16687e-06
-9.84188e-07
-2.73444e-06
-1.39862e-06
-3.14089e-06
-1.82514e-06
-3.40028e-06
-2.24463e-06
-3.53092e-06
-2.64331e-06
-3.55335e-06
-3.01211e-06
-3.48848e-06
-3.34593e-06
-3.35628e-06
-3.64272e-06
-3.1748e-06
-3.90267e-06
-2.95969e-06
-4.12752e-06
-2.724e-06
-4.31991e-06
-2.47817e-06
-4.48301e-06
-2.23022e-06
-4.62015e-06
-1.98601e-06
-4.73459e-06
-1.74951e-06
-4.82939e-06
-1.52312e-06
-4.90731e-06
-1.30793e-06
-4.97077e-06
-1.10402e-06
-5.02182e-06
-9.10632e-07
-5.06215e-06
-7.26382e-07
-5.09306e-06
-5.49407e-07
-5.11552e-06
-3.77489e-07
-5.13014e-06
-2.08154e-07
-5.13718e-06
-3.87607e-08
-5.13654e-06
1.33424e-07
-5.12776e-06
3.11147e-07
-5.10998e-06
4.97078e-07
-5.0819e-06
6.93713e-07
-5.04179e-06
9.03242e-07
-4.98741e-06
1.12739e-06
-4.91604e-06
1.3672e-06
-4.82441e-06
1.62283e-06
-4.70877e-06
1.8932e-06
-4.56497e-06
2.1757e-06
-4.3886e-06
2.46578e-06
-4.17528e-06
2.75661e-06
-3.92102e-06
3.03866e-06
-3.62286e-06
3.29943e-06
-3.27956e-06
3.52331e-06
-2.89258e-06
3.69164e-06
-2.46714e-06
3.78312e-06
-2.01329e-06
3.77471e-06
-1.54695e-06
3.643e-06
-1.09041e-06
3.3661e-06
-6.72266e-07
2.92603e-06
-3.2639e-07
2.31113e-06
-8.99109e-08
1.5182e-06
5.55381e-07
-7.42642e-08
-4.53361e-07
-2.71227e-07
-1.23366e-06
-5.62606e-07
-1.8755e-06
-9.20392e-07
-2.37665e-06
-1.31889e-06
-2.74239e-06
-1.73596e-06
-2.98321e-06
-2.15363e-06
-3.11325e-06
-2.55821e-06
-3.14877e-06
-2.93999e-06
-3.1067e-06
-3.29272e-06
-3.00354e-06
-3.613e-06
-2.85452e-06
-3.89961e-06
-2.67309e-06
-4.15292e-06
-2.47068e-06
-4.37443e-06
-2.25666e-06
-4.5663e-06
-2.03835e-06
-4.73107e-06
-1.82124e-06
-4.87139e-06
-1.60919e-06
-4.98988e-06
-1.40463e-06
-5.08897e-06
-1.20884e-06
-5.17085e-06
-1.02214e-06
-5.23743e-06
-8.44051e-07
-5.29029e-06
-6.73521e-07
-5.33068e-06
-5.0902e-07
-5.3595e-06
-3.48672e-07
-5.3773e-06
-1.90352e-07
-5.38429e-06
-3.17748e-08
-5.38029e-06
1.29429e-07
-5.36477e-06
2.95627e-07
-5.33679e-06
4.69099e-07
-5.29501e-06
6.51932e-07
-5.23766e-06
8.45893e-07
-5.16255e-06
1.05227e-06
-5.06706e-06
1.27171e-06
-4.94818e-06
1.50396e-06
-4.8026e-06
1.74762e-06
-4.6268e-06
1.9999e-06
-4.41728e-06
2.25627e-06
-4.17085e-06
2.51018e-06
-3.88501e-06
2.75282e-06
-3.55851e-06
2.97294e-06
-3.19201e-06
3.15681e-06
-2.78882e-06
3.28845e-06
-2.35574e-06
3.35003e-06
-1.9038e-06
3.32277e-06
-1.44887e-06
3.18807e-06
-1.01186e-06
2.92909e-06
-6.18371e-07
2.53255e-06
-2.97741e-07
1.9905e-06
-8.13132e-08
1.30177e-06
4.74067e-07
-6.84139e-08
-3.84948e-07
-2.51437e-07
-1.05063e-06
-5.24761e-07
-1.60217e-06
-8.64091e-07
-2.03732e-06
-1.24675e-06
-2.35974e-06
-1.6527e-06
-2.57726e-06
-2.06516e-06
-2.70079e-06
-2.47079e-06
-2.74313e-06
-2.85961e-06
-2.71788e-06
-3.22464e-06
-2.63851e-06
-3.56149e-06
-2.51767e-06
-3.86783e-06
-2.36674e-06
-4.14297e-06
-2.19554e-06
-4.38738e-06
-2.01225e-06
-4.60236e-06
-1.82337e-06
-4.78969e-06
-1.63391e-06
-4.95145e-06
-1.44743e-06
-5.08977e-06
-1.26632e-06
-5.20673e-06
-1.09189e-06
-5.30426e-06
-9.24604e-07
-5.38408e-06
-7.64234e-07
-5.44762e-06
-6.0998e-07
-5.49602e-06
-4.60613e-07
-5.53012e-06
-3.1458e-07
-5.55038e-06
-1.70092e-07
-5.55694e-06
-2.52101e-08
-5.54959e-06
1.22073e-07
-5.52772e-06
2.73758e-07
-5.49037e-06
4.31748e-07
-5.43618e-06
5.97748e-07
-5.36344e-06
7.73149e-07
-5.27005e-06
9.58882e-07
-5.15359e-06
1.15526e-06
-5.0114e-06
1.36176e-06
-4.84063e-06
1.57686e-06
-4.63846e-06
1.79773e-06
-4.40226e-06
2.02007e-06
-4.12995e-06
2.23786e-06
-3.82032e-06
2.44319e-06
-3.47358e-06
2.6262e-06
-3.09186e-06
2.77509e-06
-2.67985e-06
2.87643e-06
-2.24535e-06
2.91554e-06
-1.79986e-06
2.87728e-06
-1.35882e-06
2.74703e-06
-9.41623e-07
2.5119e-06
-5.71212e-07
2.16214e-06
-2.73105e-07
1.69239e-06
-7.40297e-08
1.10269e-06
4.00038e-07
-6.35216e-08
-3.21426e-07
-2.34705e-07
-8.79449e-07
-4.92354e-07
-1.34452e-06
-8.1512e-07
-1.71455e-06
-1.18279e-06
-1.99207e-06
-1.57715e-06
-2.1829e-06
-1.98255e-06
-2.2954e-06
-2.38613e-06
-2.33956e-06
-2.77785e-06
-2.32616e-06
-3.15029e-06
-2.26607e-06
-3.49837e-06
-2.1696e-06
-3.81894e-06
-2.04617e-06
-4.11044e-06
-1.90405e-06
-4.3725e-06
-1.75018e-06
-4.60566e-06
-1.59021e-06
-4.81105e-06
-1.42851e-06
-4.99019e-06
-1.2683e-06
-5.14475e-06
-1.11175e-06
-5.27647e-06
-9.60166e-07
-5.387e-06
-8.14074e-07
-5.47784e-06
-6.73396e-07
-5.55026e-06
-5.37557e-07
-5.60529e-06
-4.05588e-07
-5.64364e-06
-2.7623e-07
-5.66572e-06
-1.48012e-07
-5.6716e-06
-1.93272e-08
-5.66101e-06
1.11487e-07
-5.63333e-06
2.4608e-07
-5.58759e-06
3.86003e-07
-5.52246e-06
5.32618e-07
-5.4363e-06
6.86989e-07
-5.32717e-06
8.49758e-07
-5.19292e-06
1.021e-06
-5.03122e-06
1.20006e-06
-4.83973e-06
1.38537e-06
-4.61629e-06
1.57429e-06
-4.35909e-06
1.76288e-06
-4.06702e-06
1.94579e-06
-3.74e-06
2.11616e-06
-3.37937e-06
2.26557e-06
-2.98843e-06
2.38415e-06
-2.57281e-06
2.46081e-06
-2.14096e-06
2.4837e-06
-1.70447e-06
2.44079e-06
-1.27815e-06
2.32071e-06
-8.79964e-07
2.11371e-06
-5.30491e-07
1.81267e-06
-2.52122e-07
1.41402e-06
-6.79001e-08
9.1847e-07
3.32138e-07
-5.94761e-08
-2.6195e-07
-2.20748e-07
-7.18177e-07
-4.65047e-07
-1.10023e-06
-7.73353e-07
-1.40625e-06
-1.12745e-06
-1.63797e-06
-1.51064e-06
-1.7997e-06
-1.90829e-06
-1.89775e-06
-2.30804e-06
-1.9398e-06
-2.69996e-06
-1.93425e-06
-3.07638e-06
-1.88965e-06
-3.43173e-06
-1.81425e-06
-3.76225e-06
-1.71565e-06
-4.06571e-06
-1.60059e-06
-4.34108e-06
-1.47482e-06
-4.58824e-06
-1.34305e-06
-4.80777e-06
-1.20898e-06
-5.00069e-06
-1.07538e-06
-5.16827e-06
-9.44176e-07
-5.3119e-06
-8.16535e-07
-5.43297e-06
-6.93005e-07
-5.53276e-06
-5.73605e-07
-5.61238e-06
-4.57931e-07
-5.67273e-06
-3.4524e-07
-5.71442e-06
-2.34538e-07
-5.73779e-06
-1.24647e-07
-5.74284e-06
-1.42759e-08
-5.72927e-06
9.79164e-08
-5.69644e-06
2.1325e-07
-5.64339e-06
3.32956e-07
-5.56886e-06
4.5809e-07
-5.47132e-06
5.89444e-07
-5.349e-06
7.27437e-07
-5.19999e-06
8.71995e-07
-5.02235e-06
1.02242e-06
-4.81422e-06
1.17724e-06
-4.57401e-06
1.33408e-06
-4.30067e-06
1.48953e-06
-3.9939e-06
1.63902e-06
-3.65453e-06
1.77679e-06
-3.28483e-06
1.89588e-06
-2.88894e-06
1.98826e-06
-2.47316e-06
2.04503e-06
-2.04629e-06
2.05683e-06
-1.6198e-06
2.0143e-06
-1.20784e-06
1.90875e-06
-8.27034e-07
1.7329e-06
-4.9598e-07
1.48161e-06
-2.34528e-07
1.15257e-06
-6.28104e-08
7.46753e-07
2.69327e-07
-5.61991e-08
-2.05751e-07
-2.09363e-07
-5.65013e-07
-4.42598e-07
-8.6699e-07
-7.38694e-07
-1.11015e-06
-1.08101e-06
-1.29566e-06
-1.4541e-06
-1.42661e-06
-1.84418e-06
-1.50767e-06
-2.2394e-06
-1.54458e-06
-2.62996e-06
-1.54369e-06
-3.00807e-06
-1.51153e-06
-3.36786e-06
-1.45446e-06
-3.70512e-06
-1.37839e-06
-4.01709e-06
-1.28862e-06
-4.30223e-06
-1.18968e-06
-4.55992e-06
-1.08536e-06
-4.79024e-06
-9.78652e-07
-4.99381e-06
-8.71816e-07
-5.17154e-06
-7.66447e-07
-5.32452e-06
-6.63552e-07
-5.4539e-06
-5.63626e-07
-5.56076e-06
-4.66743e-07
-5.64606e-06
-3.72629e-07
-5.71057e-06
-2.80734e-07
-5.75481e-06
-1.90302e-07
-5.77903e-06
-1.00424e-07
-5.78321e-06
-1.00997e-08
-5.767e-06
8.17082e-08
-5.72977e-06
1.76019e-07
-5.67058e-06
2.7377e-07
-5.58824e-06
3.75754e-07
-5.48134e-06
4.82537e-07
-5.34828e-06
5.94377e-07
-5.18741e-06
7.11124e-07
-4.99711e-06
8.3212e-07
-4.77595e-06
9.56085e-07
-4.52288e-06
1.08102e-06
-4.23745e-06
1.2041e-06
-3.92004e-06
1.32162e-06
-3.57221e-06
1.42896e-06
-3.19693e-06
1.52061e-06
-2.79895e-06
1.59028e-06
-2.38502e-06
1.6311e-06
-1.96409e-06
1.6359e-06
-1.54744e-06
1.59765e-06
-1.14856e-06
1.50987e-06
-7.82918e-07
1.36726e-06
-4.67498e-07
1.16619e-06
-2.20129e-07
9.05203e-07
-5.86773e-08
5.85301e-07
2.1065e-07
-5.36347e-08
-1.52116e-07
-2.00406e-07
-4.18242e-07
-4.24829e-07
-6.42567e-07
-7.11065e-07
-8.23916e-07
-1.04368e-06
-9.63037e-07
-1.40822e-06
-1.06208e-06
-1.79157e-06
-1.12432e-06
-2.18232e-06
-1.15383e-06
-2.57083e-06
-1.15518e-06
-2.94928e-06
-1.13308e-06
-3.31158e-06
-1.09216e-06
-3.65322e-06
-1.03676e-06
-3.97106e-06
-9.70771e-07
-4.26316e-06
-8.97588e-07
-4.52849e-06
-8.2003e-07
-4.76678e-06
-7.4036e-07
-4.9783e-06
-6.603e-07
-5.16366e-06
-5.8108e-07
-5.32373e-06
-5.03488e-07
-5.45942e-06
-4.27933e-07
-5.57166e-06
-3.54502e-07
-5.66127e-06
-2.8302e-07
-5.7289e-06
-2.13101e-07
-5.77501e-06
-1.442e-07
-5.79977e-06
-7.56585e-08
-5.80312e-06
-6.74604e-09
-5.78471e-06
6.32936e-08
-5.74389e-06
1.35201e-07
-5.67977e-06
2.09651e-07
-5.59122e-06
2.87205e-07
-5.47693e-06
3.68247e-07
-5.33548e-06
4.52925e-07
-5.16543e-06
5.41074e-07
-4.96545e-06
6.3214e-07
-4.73447e-06
7.25107e-07
-4.47187e-06
8.18416e-07
-4.17768e-06
9.09907e-07
-3.85284e-06
9.96773e-07
-3.49943e-06
1.07555e-06
-3.12097e-06
1.14214e-06
-2.72262e-06
1.19193e-06
-2.31141e-06
1.21989e-06
-1.89636e-06
1.22086e-06
-1.4885e-06
1.18979e-06
-1.10075e-06
1.12212e-06
-7.47649e-07
1.01415e-06
-4.44896e-07
8.63439e-07
-2.08777e-07
6.69084e-07
-5.54387e-08
4.31963e-07
1.55211e-07
-5.1743e-08
-1.00373e-07
-1.9377e-07
-2.76214e-07
-4.11608e-07
-4.24729e-07
-6.90402e-07
-5.45123e-07
-1.0156e-06
-6.37839e-07
-1.37345e-06
-7.04229e-07
-1.75139e-06
-7.46376e-07
-2.13832e-06
-7.66899e-07
-2.52476e-06
-7.68738e-07
-2.90289e-06
-7.54955e-07
-3.26648e-06
-7.28567e-07
-3.61082e-06
-6.92417e-07
-3.93251e-06
-6.49076e-07
-4.22932e-06
-6.00783e-07
-4.49993e-06
-5.49417e-07
-4.7438e-06
-4.96491e-07
-4.96093e-06
-4.43166e-07
-5.15174e-06
-3.90274e-07
-5.31687e-06
-3.38359e-07
-5.45709e-06
-2.8771e-07
-5.57319e-06
-2.384e-07
-5.66588e-06
-1.90327e-07
-5.73574e-06
-1.43245e-07
-5.78314e-06
-9.68047e-08
-5.80822e-06
-5.05755e-08
-5.81088e-06
-4.08218e-09
-5.79076e-06
4.31691e-08
-5.74722e-06
9.16595e-08
-5.67939e-06
1.41826e-07
-5.58621e-06
1.94025e-07
-5.46646e-06
2.48495e-07
-5.31885e-06
3.05311e-07
-5.14211e-06
3.64336e-07
-4.93514e-06
4.25177e-07
-4.69716e-06
4.87127e-07
-4.42787e-06
5.49122e-07
-4.12766e-06
6.097e-07
-3.79787e-06
6.66981e-07
-3.44098e-06
7.18657e-07
-3.06086e-06
7.62023e-07
-2.66298e-06
7.94038e-07
-2.25452e-06
8.11429e-07
-1.8445e-06
8.10841e-07
-1.44374e-06
7.8903e-07
-1.06471e-06
7.43084e-07
-7.21225e-07
6.70669e-07
-4.28056e-07
5.7027e-07
-2.00358e-07
4.41386e-07
-5.30481e-08
2.84653e-07
1.02163e-07
-5.04965e-08
-4.98765e-08
-1.89385e-07
-1.37325e-07
-4.02844e-07
-2.1127e-07
-6.76655e-07
-2.71312e-07
-9.96839e-07
-3.17655e-07
-1.35012e-06
-3.50953e-07
-1.72427e-06
-3.72217e-07
-2.10845e-06
-3.82727e-07
-2.49326e-06
-3.83925e-07
-2.8709e-06
-3.77315e-07
-3.23508e-06
-3.64388e-07
-3.58094e-06
-3.4655e-07
-3.90495e-06
-3.25075e-07
-4.20465e-06
-3.0108e-07
-4.47856e-06
-2.75502e-07
-4.72596e-06
-2.49098e-07
-4.94667e-06
-2.22453e-07
-5.14096e-06
-1.95987e-07
-5.30934e-06
-1.69976e-07
-5.45248e-06
-1.4457e-07
-5.57107e-06
-1.1981e-07
-5.66575e-06
-9.56492e-08
-5.73703e-06
-7.19694e-08
-5.78523e-06
-4.85982e-08
-5.81048e-06
-2.53243e-08
-5.81265e-06
-1.91321e-09
-5.79136e-06
2.18787e-08
-5.74599e-06
4.62882e-08
-5.67569e-06
7.15295e-08
-5.57945e-06
9.7776e-08
-5.45609e-06
1.25141e-07
-5.30443e-06
1.53654e-07
-5.12334e-06
1.83241e-07