/*--------------------------------*- C++ -*----------------------------------*\
  =========                 |
  \\      /  F ield         | OpenFOAM: The Open Source CFD Toolbox
   \\    /   O peration     | Website:  https://openfoam.org
    \\  /    A nd           | Version:  7
     \\/     M anipulation  |
\*---------------------------------------------------------------------------*/
FoamFile
{
    version     2.0;
    format      ascii;
    class       volScalarField;
    location    "0.076";
    object      p;
}
// * * * * * * * * * * * * * * * * * * * * * * * * * * * * * * * * * * * * * //

dimensions      [0 2 -2 0 0 0 0];

internalField   nonuniform List<scalar> 
2500
(
1.89148e-06
-0.000528121
-0.00222761
-0.00476787
-0.00775576
-0.0108693
-0.0138612
-0.0165379
-0.0187526
-0.0203981
-0.0213995
-0.0217081
-0.0212973
-0.0201589
-0.0183004
-0.0157425
-0.0125175
-0.00866717
-0.00424226
0.000699272
0.00609292
0.0118685
0.0179511
0.0242616
0.0307176
0.0372341
0.0437245
0.0501012
0.056277
0.0621657
0.0676838
0.0727516
0.0772946
0.0812452
0.0845442
0.0871429
0.0890045
0.0901069
0.090444
0.0900289
0.0888962
0.087105
0.084743
0.0819311
0.0788291
0.0756407
0.0726226
0.0700889
0.0684385
0.0679619
0.000533309
5.28051e-06
-0.00138439
-0.0034005
-0.00575422
-0.0082178
-0.0105962
-0.0127281
-0.0144857
-0.0157713
-0.0165136
-0.0166637
-0.0161925
-0.0150876
-0.0133512
-0.010998
-0.00805372
-0.0045535
-0.000540764
0.00393379
0.00881317
0.0140349
0.0195318
0.0252329
0.0310639
0.0369483
0.0428081
0.0485646
0.0541393
0.0594556
0.0644389
0.0690188
0.07313
0.0767137
0.0797195
0.0821065
0.0838455
0.0849205
0.0853307
0.0850926
0.0842419
0.082836
0.0809567
0.0787124
0.0762413
0.0737134
0.0713305
0.0693162
0.0679578
0.0674855
0.0022321
0.00139606
-4.99066e-06
-0.00182951
-0.00389472
-0.00602389
-0.00806098
-0.00987362
-0.0113532
-0.0124141
-0.0129919
-0.0130412
-0.0125339
-0.0114564
-0.00980893
-0.00760283
-0.00485988
-0.00161074
0.00210599
0.00624483
0.0107542
0.0155773
0.0206528
0.0259155
0.0312976
0.0367286
0.0421368
0.0474501
0.0525965
0.0575058
0.0621101
0.0663452
0.0701521
0.073478
0.0762778
0.0785158
0.0801669
0.0812185
0.0816719
0.0815439
0.0808686
0.0796992
0.0781091
0.0761936
0.0740707
0.0718806
0.069785
0.0679613
0.0665964
0.0658395
0.00480259
0.00342477
0.00179617
-5.72425e-05
-0.00205057
-0.00404428
-0.005913
-0.00755052
-0.00886742
-0.0097914
-0.0102671
-0.0102548
-0.00972943
-0.00867889
-0.00710281
-0.00501132
-0.00242385
0.000631836
0.00412064
0.00800094
0.0122253
0.0167414
0.0214926
0.0264184
0.0314558
0.0365394
0.0416026
0.046578
0.0513991
0.0560002
0.0603184
0.0642942
0.0678729
0.0710057
0.0736512
0.0757766
0.0773592
0.0783874
0.0788627
0.0788004
0.0782311
0.0772018
0.0757767
0.0740375
0.0720829
0.0700276
0.068003
0.0661516
0.0645668
0.0632911
0.00788093
0.00583442
0.0038591
0.00185511
-0.000186909
-0.0021575
-0.0039572
-0.0055039
-0.00672672
-0.00756701
-0.00797926
-0.00793065
-0.0074004
-0.00637885
-0.00486653
-0.00287325
-0.000417173
0.00247601
0.00577381
0.00943772
0.0134238
0.0176834
0.0221639
0.0268089
0.0315596
0.0363548
0.0411322
0.0458288
0.0503819
0.0547303
0.0588146
0.0625791
0.0659723
0.0689484
0.0714683
0.0735011
0.0750249
0.0760285
0.0765118
0.0764878
0.0759824
0.0750356
0.0737019
0.0720496
0.0701595
0.068123
0.066047
0.0640456
0.0621235
0.0602001
0.0111898
0.00842259
0.00602656
0.00378554
0.00160383
-0.000432138
-0.00224398
-0.00377072
-0.0049585
-0.00576177
-0.00614494
-0.00608254
-0.00555886
-0.00456751
-0.0031108
-0.00119908
0.0011499
0.00391167
0.00705562
0.0105456
0.0143404
0.0183945
0.0226583
0.0270791
0.0316015
0.0361678
0.0407192
0.0451962
0.0495394
0.0536905
0.0575933
0.0611946
0.0644452
0.0673012
0.0697247
0.0716856
0.0731618
0.0741412
0.0746216
0.0746123
0.0741343
0.0732204
0.0719153
0.0702748
0.0683638
0.0662539
0.064032
0.0617915
0.0594547
0.0568282
0.0145181
0.0110176
0.00815884
0.00562112
0.00323253
0.001063
-0.000825525
-0.00239005
-0.00359174
-0.00439707
-0.00478002
-0.00472247
-0.00421415
-0.00325247
-0.00184214
5.22695e-06
0.00227163
0.00493311
0.00796021
0.0113184
0.0149687
0.0188677
0.0229687
0.0272215
0.0315735
0.0359699
0.0403546
0.0446706
0.0488611
0.0528702
0.0566436
0.0601297
0.0632807
0.0660534
0.0684105
0.0703213
0.0717631
0.0727215
0.0731917
0.0731789
0.0726985
0.0717763
0.070448
0.0687582
0.0667579
0.0645022
0.0620637
0.059521
0.0567241
0.0533794
0.0177015
0.0134757
0.0101337
0.00726142
0.00462001
0.00226813
0.000255262
-0.00139057
-0.00264355
-0.00348091
-0.00388553
-0.00384638
-0.0033587
-0.00242396
-0.00104968
0.000750791
0.00295863
0.00554981
0.00849545
0.0117621
0.0153122
0.0191041
0.0230931
0.0272311
0.0314676
0.03575
0.0400241
0.0442349
0.0483274
0.0522471
0.0559408
0.0593578
0.0624509
0.0651767
0.0674973
0.0693811
0.0708035
0.0717475
0.0722049
0.0721766
0.0716723
0.070711
0.0693201
0.0675346
0.0653937
0.0629396
0.0602342
0.0573473
0.0540659
0.0500067
0.0206117
0.0156768
0.0118439
0.00861434
0.00568973
0.00312167
0.000950431
-0.000808323
-0.00213986
-0.00303094
-0.00347248
-0.00346019
-0.00299466
-0.00208151
-0.000731309
0.00104053
0.00321395
0.00576438
0.00866302
0.011877
0.0153696
0.0191006
0.0230264
0.0271006
0.0312742
0.0354961
0.0397136
0.043873
0.0479202
0.0518013
0.0554639
0.0588572
0.0619335
0.0646489
0.0669642
0.0688457
0.0702664
0.0712064
0.0716535
0.0716039
0.0710619
0.0700399
0.068558
0.0666428
0.0643241
0.0616336
0.0586265
0.055368
0.0515896
0.0468274
0.0231462
0.0175202
0.0131955
0.00959535
0.00636804
0.00356104
0.001208
-0.000685609
-0.00211447
-0.00307364
-0.00356132
-0.00357945
-0.00313375
-0.00223395
-0.000893801
0.000868999
0.00303283
0.00557224
0.0084581
0.0116576
0.0151346
0.0188495
0.0227598
0.0268199
0.0309818
0.0351956
0.0394091
0.0435695
0.047623
0.0515159
0.0551955
0.0586104
0.0617119
0.0644546
0.0667972
0.0687037
0.0701439
0.0710944
0.0715387
0.0714682
0.0708817
0.0697858
0.0681938
0.0661252
0.0636022
0.0606484
0.0573153
0.0536668
0.0493849
0.0439314
0.0252207
0.0189189
0.0141042
0.0101264
0.00658445
0.00352399
0.000973981
-0.00106849
-0.00260617
-0.00364137
-0.00417886
-0.0042263
-0.0037943
-0.00289663
-0.00155021
0.000224775
0.00240494
0.00496368
0.00787117
0.0110944
0.0145972
0.0183404
0.0222818
0.0263766
0.0305773
0.0348342
0.0390958
0.0433091
0.0474202
0.0513752
0.0551202
0.0586028
0.0617726
0.064582
0.0669871
0.0689488
0.0704334
0.0714132
0.0718675
0.0717825
0.0711518
0.0699761
0.0682629
0.0660257
0.0632804
0.0600449
0.0563686
0.0523172
0.0475271
0.0413901
0.0267619
0.0197958
0.0144934
0.0101342
0.00627083
0.00294843
0.000192782
-0.00200611
-0.00365795
-0.00477148
-0.00535738
-0.00542863
-0.0050005
-0.00409063
-0.00271919
-0.000908894
0.00131493
0.00392426
0.00688833
0.0101736
0.0137436
0.0175592
0.0215783
0.0257561
0.0300455
0.0343966
0.0387579
0.0430761
0.0472966
0.0513643
0.0552242
0.058822
0.0621049
0.0650227
0.0675283
0.069579
0.0711368
0.0721697
0.072652
0.0725648
0.0718964
0.070642
0.0688037
0.0663898
0.0634112
0.0598813
0.0558496
0.0513852
0.0460815
0.0392628
0.0277035
0.0200795
0.0142909
0.00954867
0.00536037
0.00177198
-0.00119293
-0.00355052
-0.00531664
-0.00650579
-0.00713411
-0.00721956
-0.00678182
-0.00584238
-0.00442458
-0.00255377
-0.000257361
0.00243505
0.00549155
0.00887776
0.0125568
0.016489
0.0206323
0.0249416
0.0293695
0.033866
0.038379
0.0428544
0.0472365
0.0514689
0.0554945
0.0592568
0.0627001
0.065771
0.0684186
0.0705959
0.0722604
0.073375
0.0739089
0.0738377
0.0731443
0.0718185
0.0698575
0.0672649
0.0640474
0.0602152
0.055819
0.0509326
0.045108
0.0376024
0.0279826
0.0197021
0.0134272
0.00830087
0.00378648
-6.86469e-05
-0.00324248
-0.00575666
-0.00763265
-0.00889028
-0.0095508
-0.00963692
-0.0091726
-0.00818308
-0.00669493
-0.00473617
-0.0023364
0.000473048
0.00365893
0.00718587
0.0110162
0.0151099
0.0194241
0.0239137
0.0285305
0.0332241
0.0379414
0.0426272
0.0472245
0.0516749
0.055919
0.0598974
0.0635514
0.0668233
0.0696582
0.0720043
0.0738137
0.0750441
0.0756588
0.0756278
0.0749282
0.0735445
0.071469
0.068701
0.0652438
0.0611046
0.0563367
0.0510197
0.0446637
0.0364589
0.0275367
0.0185963
0.0118332
0.00632192
0.00148169
-0.00263844
-0.00601758
-0.0086825
-0.01066
-0.0119749
-0.0126534
-0.0127229
-0.0122116
-0.0111483
-0.00956305
-0.00748652
-0.0049506
-0.00198849
0.00136509
0.00507364
0.0090986
0.0133991
0.0179319
0.022651
0.0275078
0.0324508
0.0374259
0.0423767
0.0472442
0.0519679
0.0564856
0.0607348
0.0646528
0.0681778
0.0712497
0.0738114
0.0758095
0.0771953
0.077926
0.0779655
0.0772847
0.0758627
0.0736865
0.0707515
0.0670576
0.0626099
0.0574644
0.0517073
0.0448064
0.0358828
0.0263021
0.016694
0.0094387
0.0035414
-0.00162342
-0.00600483
-0.00958287
-0.0123894
-0.0144562
-0.0158134
-0.0164919
-0.0165238
-0.0159415
-0.0147777
-0.0130656
-0.0108389
-0.00813187
-0.0049796
-0.00141841
0.00251392
0.00677782
0.0113316
0.0161313
0.0211301
0.0262787
0.0315245
0.0368123
0.042084
0.0472787
0.0523332
0.0571825
0.0617602
0.0659995
0.0698337
0.0731972
0.0760269
0.078263
0.0798501
0.0807386
0.0808852
0.0802547
0.0788199
0.0765626
0.0734739
0.0695503
0.0647948
0.0592668
0.0530595
0.0455967
0.0359277
0.024212
0.0139242
0.0061708
-0.000113923
-0.00560131
-0.0102385
-0.0140065
-0.0169422
-0.0190829
-0.0204636
-0.0211202
-0.0210897
-0.0204088
-0.0191142
-0.0172427
-0.0148307
-0.0119151
-0.00853311
-0.00472267
-0.000522902
0.00402556
0.00888016
0.013996
0.0193258
0.024819
0.0304223
0.036079
0.0417292
0.04731
0.0527554
0.0579971
0.0629648
0.0675869
0.0717912
0.0755062
0.0786622
0.0811921
0.0830331
0.0841277
0.0844254
0.0838835
0.082468
0.0801549
0.0769308
0.0727883
0.0677284
0.0618138
0.0551452
0.0471003
0.0366525
0.0211953
0.0102119
0.00195271
-0.00472122
-0.0105284
-0.0154142
-0.0193608
-0.0224103
-0.0246055
-0.025987
-0.026596
-0.0264743
-0.0256634
-0.0242043
-0.0221371
-0.0195018
-0.0163376
-0.0126841
-0.00858078
-0.00406826
0.00081177
0.00601588
0.0114985
0.0172113
0.0231033
0.0291199
0.0352031
0.0412914
0.0473194
0.0532186
0.0589169
0.0643398
0.0694105
0.0740511
0.0781834
0.0817302
0.0846166
0.0867713
0.0881283
0.0886285
0.0882208
0.0868638
0.0845269
0.0811909
0.0768447
0.0714864
0.0651823
0.0580406
0.04939
0.0381237
0.0171755
0.00547696
-0.00329754
-0.0103628
-0.0164863
-0.0216118
-0.0257227
-0.0288671
-0.0310939
-0.0324493
-0.0329804
-0.0327345
-0.0317581
-0.0300966
-0.0277942
-0.0248941
-0.0214385
-0.017469
-0.0130271
-0.00815476
-0.00289463
0.00270901
0.0086099
0.0147592
0.0211051
0.0275921
0.034161
0.0407487
0.0472876
0.0537061
0.0599286
0.065876
0.0714661
0.0766146
0.0812362
0.0852454
0.0885584
0.0910948
0.0927787
0.0935412
0.0933218
0.0920704
0.0897484
0.0863305
0.0818004
0.076153
0.0694577
0.0618307
0.052548
0.0404172
0.0120696
-0.000367226
-0.00966827
-0.0171271
-0.0235624
-0.0289165
-0.0331747
-0.0363915
-0.0386224
-0.0399203
-0.0403385
-0.0399305
-0.0387482
-0.0368422
-0.0342608
-0.0310508
-0.0272576
-0.0229251
-0.0180965
-0.0128152
-0.00712488
-0.00107035
0.0053016
0.0119417
0.0187977
0.0258134
0.0329288
0.0400789
0.0471943
0.0542005
0.0610182
0.0675637
0.0737489
0.079483
0.0846725
0.0892232
0.0930415
0.0960362
0.0981206
0.0992147
0.0992471
0.0981571
0.0958971
0.0924341
0.0877455
0.0818221
0.074736
0.0666112
0.0566673
0.0436201
0.00578686
-0.00741494
-0.0172554
-0.0251102
-0.0318516
-0.0374208
-0.0418056
-0.0450677
-0.0472703
-0.0484736
-0.0487384
-0.0481247
-0.046691
-0.044493
-0.0415842
-0.0380153
-0.0338347
-0.0290889
-0.0238231
-0.0180817
-0.0119093
-0.00535122
0.00154564
0.00873192
0.0161551
0.0237589
0.0314824
0.0392597
0.0470193
0.0546843
0.0621717
0.069393
0.0762543
0.0826576
0.0885009
0.0936802
0.0980912
0.101631
0.1042
0.105705
0.106063
0.105201
0.103059
0.0995962
0.0947813
0.0885997
0.0811258
0.0724913
0.0618545
0.0478331
-0.00177164
-0.0157694
-0.0261639
-0.0344168
-0.0414569
-0.0472246
-0.0517109
-0.054986
-0.0571218
-0.0581872
-0.0582512
-0.0573819
-0.0556446
-0.0531017
-0.0498117
-0.0458298
-0.0412079
-0.0359952
-0.0302387
-0.0239839
-0.017276
-0.0101604
-0.00268385
0.00510462
0.0131529
0.0214047
0.029799
0.0382693
0.0467428
0.05514
0.0633747
0.0713537
0.0789773
0.0861397
0.0927301
0.098634
0.103735
0.107916
0.111066
0.113074
0.113844
0.113286
0.111331
0.107922
0.103021
0.0966055
0.0887504
0.0795951
0.0682317
0.0531719
-0.0107148
-0.0255441
-0.0365093
-0.0451621
-0.0524912
-0.0584368
-0.0629942
-0.0662434
-0.0682666
-0.0691428
-0.0689509
-0.067768
-0.0656678
-0.0627198
-0.0589886
-0.0545343
-0.0494127
-0.0436755
-0.0373717
-0.0305478
-0.0232491
-0.0155209
-0.00740913
0.00103799
0.00976931
0.0187294
0.0278579
0.0370879
0.0463459
0.0555508
0.0646133
0.0734359
0.0819129
0.0899309
0.0973694
0.104103
0.110001
0.114934
0.118771
0.121388
0.122669
0.122508
0.120819
0.117532
0.112594
0.105975
0.0977502
0.0880649
0.0759392
0.0597707
-0.0211629
-0.036865
-0.0484196
-0.0574736
-0.065079
-0.071177
-0.0757681
-0.0789443
-0.0807999
-0.0814261
-0.0809133
-0.0793495
-0.076818
-0.0733965
-0.0691568
-0.0641644
-0.0584791
-0.0521557
-0.0452447
-0.0377934
-0.0298471
-0.0214501
-0.0126471
-0.00348483
0.00598742
0.0157159
0.0256413
0.0356979
0.045812
0.0559014
0.0658745
0.0756299
0.0850563
0.0940324
0.102428
0.110106
0.116921
0.122726
0.127374
0.13072
0.132627
0.132971
0.131643
0.128557
0.123645
0.116864
0.108286
0.0980638
0.0851386
0.0677841
-0.0332491
-0.0498723
-0.0620377
-0.071493
-0.0793584
-0.0855765
-0.0901554
-0.093201
-0.0948228
-0.0951261
-0.0942156
-0.092192
-0.0891501
-0.0851772
-0.0803531
-0.0747493
-0.0684304
-0.0614539
-0.0538722
-0.0457327
-0.0370802
-0.0279575
-0.0184074
-0.0084738
0.00179643
0.0123522
0.0231368
0.034086
0.0451274
0.0561787
0.0671468
0.0779271
0.0884031
0.0984461
0.107916
0.116662
0.124525
0.131339
0.136935
0.141148
0.143815
0.144789
0.143936
0.141149
0.136339
0.129447
0.120541
0.10978
0.096016
0.0773909
-0.0471222
-0.064724
-0.0775247
-0.08738
-0.0954834
-0.101781
-0.10629
-0.109135
-0.110442
-0.110335
-0.108935
-0.106359
-0.102715
-0.0981008
-0.0926061
-0.0863093
-0.0792798
-0.0715782
-0.063258
-0.0543669
-0.0449482
-0.0350425
-0.0246895
-0.0139297
-0.00280604
0.0086343
0.0203381
0.0322445
0.0442833
0.0563733
0.0684213
0.0803205
0.09195
0.103174
0.113843
0.123792
0.132846
0.140819
0.14752
0.152757
0.156339
0.15809
0.157848
0.155476
0.150863
0.143926
0.134728
0.123429
0.108787
0.0887976
-0.0629497
-0.0815988
-0.0950633
-0.105315
-0.113628
-0.119953
-0.124321
-0.126876
-0.12777
-0.127147
-0.125148
-0.12191
-0.117555
-0.112197
-0.105934
-0.0988525
-0.0910275
-0.0825226
-0.0733923
-0.0636834
-0.0534373
-0.0426913
-0.0314809
-0.0198418
-0.00781168
0.00456749
0.0172477
0.0301728
0.0432765
0.0564804
0.0696925
0.0828053
0.0956946
0.108219
0.120218
0.131515
0.141917
0.151217
0.159198
0.165638
0.170314
0.173015
0.173544
0.17173
0.167429
0.160533
0.15109
0.139262
0.123701
0.102244
-0.0809221
-0.100702
-0.114864
-0.125505
-0.133988
-0.140274
-0.144409
-0.146567
-0.146925
-0.145656
-0.142927
-0.138896
-0.133705
-0.127483
-0.12034
-0.112371
-0.103657
-0.0942646
-0.0842479
-0.0736527
-0.0625172
-0.0508742
-0.0387536
-0.026185
-0.0131991
0.000169085
0.0138784
0.0278794
0.0421115
0.0565011
0.0709593
0.0853797
0.0996364
0.113583
0.127051
0.139851
0.151772
0.162583
0.17204
0.179887
0.185864
0.189718
0.19121
0.190126
0.186282
0.179533
0.16991
0.157571
0.141049
0.118008
-0.101259
-0.122272
-0.13717
-0.148188
-0.15679
-0.162949
-0.166736
-0.168359
-0.168031
-0.165958
-0.16234
-0.15736
-0.151185
-0.14396
-0.13581
-0.126839
-0.117132
-0.10676
-0.0957768
-0.0842246
-0.0721375
-0.0595423
-0.0464618
-0.0329174
-0.0189313
-0.00452957
0.0102557
0.0253836
0.0408019
0.0564438
0.0722258
0.088045
0.103776
0.11927
0.134351
0.148817
0.162441
0.174966
0.186119
0.195605
0.203123
0.208369
0.211052
0.210908
0.207698
0.201233
0.191517
0.178696
0.161172
0.136415
-0.124215
-0.14659
-0.162268
-0.173644
-0.182295
-0.188213
-0.191503
-0.192416
-0.191214
-0.188143
-0.183443
-0.177329
-0.169995
-0.161607
-0.152304
-0.142202
-0.13139
-0.119941
-0.107906
-0.0953248
-0.0822247
-0.0686247
-0.0545386
-0.0399777
-0.0249536
-0.00948103
0.00641918
0.0227172
0.0393714
0.0563248
0.0735022
0.0908067
0.108117
0.125282
0.142124
0.158429
0.173952
0.188415
0.201508
0.212898
0.222232
0.229151
0.233301
0.23435
0.231996
0.225989
0.216293
0.203037
0.184469
0.157846
-0.150093
-0.173988
-0.190501
-0.202201
-0.210805
-0.216331
-0.218931
-0.218916
-0.216603
-0.212296
-0.20628
-0.198811
-0.190113
-0.180377
-0.169757
-0.158379
-0.146339
-0.133707
-0.120534
-0.106851
-0.0926786
-0.0780255
-0.062894
-0.0472831
-0.0311914
-0.0146199
0.00242435
0.0199255
0.0378552
0.0561695
0.0748048
0.0936736
0.112661
0.131622
0.150373
0.168696
0.186329
0.20297
0.218277
0.231869
0.24334
0.252262
0.258207
0.260762
0.25954
0.254213
0.24469
0.231067
0.211415
0.182751
-0.179257
-0.204874
-0.22228
-0.234256
-0.242678
-0.247612
-0.249271
-0.248044
-0.244326
-0.238489
-0.230873
-0.221785
-0.211484
-0.200186
-0.188065
-0.175253
-0.161851
-0.147927
-0.133525
-0.11867
-0.10337
-0.0876215
-0.0714127
-0.0547276
-0.0375491
-0.0198621
-0.00165676
0.0170678
0.0363
0.0560122
0.0761559
0.0966577
0.117414
0.138287
0.159096
0.17962
0.199584
0.218665
0.236486
0.252621
0.266598
0.277914
0.28605
0.290493
0.290751
0.28639
0.27724
0.26335
0.242577
0.211666
-0.212154
-0.239745
-0.258113
-0.270284
-0.278339
-0.28241
-0.282799
-0.279999
-0.274505
-0.266773
-0.257217
-0.246196
-0.234013
-0.220912
-0.207081
-0.192662
-0.177756
-0.162427
-0.146709
-0.130615
-0.114138
-0.0972607
-0.0799529
-0.0621812
-0.0439098
-0.0251044
-0.00573569
0.0142174
0.0347634
0.0558948
0.0775827
0.0997721
0.122376
0.145269
0.168281
0.191189
0.213716
0.235517
0.256185
0.275243
0.292153
0.306323
0.317129
0.323933
0.326109
0.323085
0.31458
0.300565
0.278641
0.245236
-0.249339
-0.279227
-0.298628
-0.310869
-0.318294
-0.321135
-0.31982
-0.314983
-0.307245
-0.297172
-0.285262
-0.271941
-0.257554
-0.242375
-0.226608
-0.210398
-0.193841
-0.176993
-0.159874
-0.142482
-0.124791
-0.106762
-0.0883471
-0.069491
-0.0501361
-0.0302262
-0.009709
0.0114597
0.0333124
0.0558656
0.0791147
0.103028
0.127542
0.15255
0.177899
0.203375
0.2287
0.253519
0.277396
0.299807
0.320141
0.337711
0.351765
0.361517
0.366168
0.364964
0.357471
0.343538
0.320446
0.284244
-0.291518
-0.324115
-0.344617
-0.356732
-0.363153
-0.364262
-0.360668
-0.353193
-0.342625
-0.329662
-0.314905
-0.298852
-0.281897
-0.264338
-0.246388
-0.228194
-0.209839
-0.191364
-0.172771
-0.154032
-0.135102
-0.115916
-0.0964033
-0.0764829
-0.0560729
-0.0350917
-0.0134613
0.00888909
0.0320195
0.0559749
0.0807798
0.106432
0.132898
0.160098
0.187903
0.21612
0.244481
0.272629
0.300107
0.326349
0.350674
0.372286
0.390292
0.403722
0.411561
0.412817
0.406835
0.393283
0.369028
0.329658
-0.339605
-0.37544
-0.397094
-0.408774
-0.413649
-0.412337
-0.405698
-0.394811
-0.380676
-0.364154
-0.345965
-0.326685
-0.306752
-0.286483
-0.266096
-0.245723
-0.22543
-0.205232
-0.185105
-0.164992
-0.144817
-0.12449
-0.103909
-0.0829664
-0.0615517
-0.0395553
-0.0168703
0.00660385
0.0309582
0.0562702
0.0825988
0.109978
0.13841
0.167853
0.198213
0.229329
0.260957
0.292752
0.32425
0.354854
0.383815
0.410228
0.433038
0.45106
0.463008
0.467574
0.463795
0.451065
0.425696
0.382692
-0.394812
-0.434563
-0.457371
-0.468126
-0.470669
-0.465977
-0.455272
-0.439975
-0.421353
-0.400465
-0.378159
-0.355089
-0.33173
-0.308408
-0.285325
-0.26259
-0.240236
-0.218242
-0.196546
-0.175055
-0.153659
-0.132232
-0.110639
-0.0887414
-0.0663981
-0.0434683
-0.0198136
0.00469913
0.0301953
0.0567889
0.0845782
0.11364
0.144019
0.175724
0.208708
0.242857
0.277966
0.313724
0.349681
0.385224
0.419553
0.451656
0.480306
0.504068
0.521319
0.530338
0.529732
0.518478
0.492124
0.444897
-0.458776
-0.503315
-0.527175
-0.53622
-0.535276
-0.525867
-0.509731
-0.48874
-0.464493
-0.438274
-0.411065
-0.383586
-0.356329
-0.329606
-0.303586
-0.27833
-0.253824
-0.229995
-0.206731
-0.183895
-0.161333
-0.138879
-0.116361
-0.093607
-0.0704406
-0.0466882
-0.0221781
0.00325794
0.0297824
0.0575491
0.0867007
0.117362
0.149632
0.183576
0.219212
0.256487
0.295264
0.335285
0.376145
0.417245
0.457759
0.496587
0.532328
0.56327
0.587381
0.602406
0.606351
0.597567
0.570501
0.518304
-0.533772
-0.584207
-0.6088
-0.61487
-0.608726
-0.592729
-0.569341
-0.541016
-0.509753
-0.477073
-0.444081
-0.411534
-0.379906
-0.349459
-0.320297
-0.292409
-0.265709
-0.240054
-0.215272
-0.191168
-0.167538
-0.14417
-0.120853
-0.0973732
-0.073522
-0.0490901
-0.0238707
0.00234056
0.0297454
0.0585393
0.0889147
0.121049
0.155104
0.191214
0.229474
0.269918
0.312498
0.357047
0.403238
0.450536
0.498129
0.544868
0.589202
0.629125
0.662132
0.685287
0.695769
0.690983
0.663753
0.605642
-0.623055
-0.680763
-0.70533
-0.706368
-0.692469
-0.667262
-0.634202
-0.596473
-0.556523
-0.516097
-0.476376
-0.438096
-0.401658
-0.367224
-0.334786
-0.304228
-0.275363
-0.247961
-0.221772
-0.196534
-0.171984
-0.147861
-0.123909
-0.0998749
-0.075513
-0.0505789
-0.0248307
0.00197253
0.030072
0.0597087
0.0911238
0.124555
0.160232
0.198371
0.23916
0.28274
0.329185
0.378457
0.430362
0.484484
0.540101
0.596083
0.650784
0.701928
0.746489
0.780695
0.800604
0.802217
0.775885
0.710708
-0.731463
-0.798035
-0.820946
-0.813574
-0.788088
-0.750003
-0.704089
-0.654394
-0.603808
-0.554233
-0.506826
-0.462205
-0.420611
-0.382032
-0.346295
-0.313134
-0.282232
-0.253249
-0.225841
-0.19967
-0.174408
-0.14974
-0.125363
-0.100986
-0.0763254
-0.0511026
-0.0250417
0.00213377
0.0307037
0.0609537
0.0931761
0.127671
0.164742
0.204696
0.247829
0.294415
0.344679
0.398761
0.456664
0.518175
0.582757
0.649417
0.716531
0.781638
0.841203
0.890481
0.924068
0.935904
0.912521
0.838998
-0.866503
-0.943425
-0.961315
-0.939955
-0.897138
-0.841087
-0.77821
-0.713464
-0.650071
-0.589914
-0.533952
-0.48253
-0.435605
-0.392896
-0.353998
-0.318446
-0.28576
-0.255468
-0.227121
-0.200294
-0.174592
-0.149644
-0.125102
-0.100635
-0.0759261
-0.0506643
-0.0245426
0.00274814
0.0315241
0.062113
0.0948576
0.13012
0.168282
0.209746
0.25493
0.304261
0.358151
0.416969
0.480986
0.550295
0.624689
0.703484
0.785273
0.867616
0.946597
1.01646
1.07
1.09823
1.08176
0.998861
-1.04043
-1.12799
-1.13406
-1.08949
-1.02078
-0.939815
-0.854822
-0.771487
-0.693041
-0.621011
-0.55587
-0.497467
-0.44531
-0.398736
-0.357031
-0.319482
-0.285416
-0.254214
-0.225308
-0.198187
-0.172385
-0.14748
-0.12308
-0.0988181
-0.0743479
-0.0493316
-0.0234355
0.00367765
0.0323555
0.0629632
0.0958901
0.131557
0.170422
0.212987
0.2598
0.311454
0.36858
0.431824
0.501809
0.579055
0.663857
0.756099
0.854895
0.958207
1.0621
1.16001
1.24275
1.29741
1.2955
1.2037
-1.27449
-1.36843
-1.34906
-1.26614
-1.15897
-1.0439
-0.930655
-0.824996
-0.729486
-0.644719
-0.570254
-0.505148
-0.448259
-0.398423
-0.354539
-0.315607
-0.280741
-0.249161
-0.220186
-0.193216
-0.167724
-0.143238
-0.11933
-0.0956064
-0.0716961
-0.0472412
-0.021888
0.0047217
0.0329601
0.0632224
0.095937
0.131577
0.170669
0.213811
0.261678
0.315038
0.37476
0.441808
0.517231
0.602108
0.697448
0.803999
0.921896
1.05011
1.18544
1.32121
1.4466
1.54395
1.57153
1.47648
-1.60768
-1.69014
-1.61792
-1.47211
-1.30871
-1.14808
-0.99996
-0.868689
-0.754917
-0.657436
-0.574317
-0.503468
-0.442899
-0.390831
-0.345725
-0.306273
-0.271372
-0.240091
-0.21164
-0.185349
-0.160636
-0.136994
-0.113969
-0.091149
-0.0681479
-0.0445965
-0.0201302
0.00562152
0.0330455
0.062557
0.0946123
0.129724
0.168475
0.211545
0.259724
0.313948
0.375322
0.445148
0.524953
0.616486
0.721681
0.842527
0.980777
1.13734
1.31111
1.49692
1.6839
1.85003
1.93654
1.85885
-2.11208
-2.13081
-1.95208
-1.70483
-1.46134
-1.24227
-1.05351
-0.894981
-0.763486
-0.654831
-0.56494
-0.490236
-0.427722
-0.37495
-0.329937
-0.291085
-0.257098
-0.226921
-0.199686
-0.174668
-0.151255
-0.128919
-0.107196
-0.0856672
-0.0639442
-0.0416568
-0.0184401
0.00607752
0.0322861
0.0606077
0.0915115
0.125532
0.163289
0.205517
0.253097
0.307101
0.368842
0.439941
0.522405
0.618708
0.731866
0.865466
1.02356
1.21024
1.42852
1.67804
1.95192
2.2276
2.42968
2.42633
-2.91851
-2.74064
-2.35923
-1.95482
-1.60145
-1.31151
-1.07925
-0.895049
-0.749091
-0.632871
-0.539572
-0.463917
-0.401876
-0.350376
-0.307062
-0.270114
-0.238106
-0.209911
-0.184621
-0.161493
-0.139909
-0.119343
-0.0993356
-0.0794782
-0.0593931
-0.0387211
-0.0171085
0.00580531
0.0304003
0.0570905
0.0863399
0.118683
0.154749
0.195294
0.241247
0.293761
0.354294
0.424712
0.50743
0.605595
0.723337
0.866055
1.04072
1.25599
1.52188
1.84828
2.24041
2.68434
3.10193
3.31319
-4.32377
-3.56008
-2.81521
-2.18876
-1.69845
-1.33201
-1.0609
-0.858614
-0.70563
-0.588161
-0.496503
-0.42382
-0.365266
-0.317355
-0.277528
-0.243878
-0.214949
-0.189615
-0.166985
-0.146337
-0.12708
-0.108713
-0.0908024
-0.072964
-0.0548441
-0.0361069
-0.0164222
0.00454736
0.0271582
0.0518001
0.0789126
0.109006
0.142685
0.180688
0.223931
0.273574
0.331115
0.398526
0.478449
0.574489
0.691656
0.837015
1.0206
1.25667
1.56541
1.97448
2.51367
3.19358
3.99335
4.82421
-7.15775
-4.5583
-3.13897
-2.2524
-1.64472
-1.23368
-0.953958
-0.757417
-0.614776
-0.508395
-0.42712
-0.363666
-0.313151
-0.272199
-0.23841
-0.210026
-0.185728
-0.164504
-0.145558
-0.12825
-0.112057
-0.0965343
-0.0813019
-0.0660196
-0.0503759
-0.0340748
-0.0168241
0.00167271
0.0217309
0.043695
0.0679543
0.0949607
0.125254
0.159491
0.198495
0.243316
0.295324
0.356346
0.428886
0.51646
0.624153
0.759548
0.934266
1.16666
1.48707
1.94576
2.61219
3.57094
5.07645
7.79529
-12.0262
-5.64108
-2.97468
-1.87562
-1.27837
-0.923482
-0.703689
-0.557745
-0.45451
-0.378229
-0.320079
-0.274666
-0.238484
-0.209138
-0.184916
-0.164554
-0.147091
-0.13178
-0.118026
-0.105346
-0.0933378
-0.0816612
-0.0700186
-0.0581434
-0.0457897
-0.0327226
-0.0187119
-0.00352027
0.0131014
0.0314247
0.0517548
0.0744438
0.0999079
0.128651
0.161297
0.198634
0.241679
0.291781
0.35077
0.421211
0.506849
0.613419
0.750233
0.933693
1.19576
1.60024
2.26365
3.45754
6.24102
12.7519
)
;

boundaryField
{
    movingWall
    {
        type            zeroGradient;
    }
    fixedWalls
    {
        type            zeroGradient;
    }
    frontAndBack
    {
        type            empty;
    }
}


// ************************************************************************* //
