/*--------------------------------*- C++ -*----------------------------------*\
  =========                 |
  \\      /  F ield         | OpenFOAM: The Open Source CFD Toolbox
   \\    /   O peration     | Website:  https://openfoam.org
    \\  /    A nd           | Version:  7
     \\/     M anipulation  |
\*---------------------------------------------------------------------------*/
FoamFile
{
    version     2.0;
    format      ascii;
    class       volVectorField;
    location    "0.0666";
    object      U;
}
// * * * * * * * * * * * * * * * * * * * * * * * * * * * * * * * * * * * * * //

dimensions      [0 1 -1 0 0 0 0];

internalField   nonuniform List<vector> 
2500
(
(-0.293797 0.153718 0)
(-0.397928 0.128718 0)
(-0.577968 0.0737925 0)
(-0.696271 0.0408781 0)
(-0.765275 0.0234003 0)
(-0.809638 0.0141498 0)
(-0.84026 0.00916664 0)
(-0.862389 0.00636089 0)
(-0.879059 0.00467386 0)
(-0.892051 0.00358567 0)
(-0.902438 0.00283821 0)
(-0.9109 0.00229749 0)
(-0.917888 0.00188968 0)
(-0.923716 0.00157149 0)
(-0.928606 0.00131593 0)
(-0.932721 0.00110534 0)
(-0.93618 0.000927618 0)
(-0.939073 0.000774211 0)
(-0.941467 0.000638878 0)
(-0.943414 0.000516955 0)
(-0.94495 0.000404866 0)
(-0.946105 0.000299806 0)
(-0.946898 0.000199509 0)
(-0.947341 0.000102095 0)
(-0.947442 5.94434e-06 0)
(-0.947203 -9.0438e-05 0)
(-0.946621 -0.000188429 0)
(-0.94569 -0.000289436 0)
(-0.944397 -0.000394966 0)
(-0.942725 -0.000506728 0)
(-0.94065 -0.00062676 0)
(-0.938142 -0.000757594 0)
(-0.935161 -0.000902496 0)
(-0.931655 -0.0010658 0)
(-0.927557 -0.00125343 0)
(-0.922779 -0.00147368 0)
(-0.917204 -0.00173851 0)
(-0.910673 -0.00206587 0)
(-0.902969 -0.00248373 0)
(-0.893782 -0.00303803 0)
(-0.882662 -0.00380837 0)
(-0.868927 -0.00494023 0)
(-0.851494 -0.00671246 0)
(-0.828563 -0.00967641 0)
(-0.79712 -0.0149197 0)
(-0.752017 -0.0244964 0)
(-0.682509 -0.0421421 0)
(-0.564904 -0.0746082 0)
(-0.389296 -0.128117 0)
(-0.290202 -0.152368 0)
(-0.00515816 0.302898 0)
(-0.0270659 0.307345 0)
(-0.171361 0.217809 0)
(-0.308286 0.146616 0)
(-0.41728 0.0992615 0)
(-0.502611 0.0690166 0)
(-0.569115 0.0497768 0)
(-0.621195 0.0372451 0)
(-0.662528 0.0287678 0)
(-0.695836 0.0227974 0)
(-0.723053 0.0184319 0)
(-0.745553 0.0151317 0)
(-0.764326 0.0125627 0)
(-0.780091 0.01051 0)
(-0.793381 0.00883044 0)
(-0.804594 0.00742529 0)
(-0.814031 0.00622464 0)
(-0.821919 0.00517762 0)
(-0.828433 0.00424635 0)
(-0.833706 0.00340202 0)
(-0.837837 0.00262223 0)
(-0.840902 0.00188915 0)
(-0.842952 0.00118827 0)
(-0.844024 0.000507369 0)
(-0.844139 -0.000164152 0)
(-0.843303 -0.000835955 0)
(-0.841511 -0.00151723 0)
(-0.838746 -0.00221726 0)
(-0.834976 -0.00294595 0)
(-0.830158 -0.00371442 0)
(-0.824232 -0.00453582 0)
(-0.817119 -0.00542629 0)
(-0.808717 -0.00640629 0)
(-0.798897 -0.0075025 0)
(-0.787488 -0.0087505 0)
(-0.774274 -0.0101989 0)
(-0.758967 -0.0119153 0)
(-0.741193 -0.0139968 0)
(-0.720447 -0.0165854 0)
(-0.696049 -0.0198963 0)
(-0.667063 -0.0242653 0)
(-0.632197 -0.0302334 0)
(-0.58964 -0.0386971 0)
(-0.536877 -0.0511687 0)
(-0.470593 -0.0701767 0)
(-0.386935 -0.0996696 0)
(-0.281715 -0.14507 0)
(-0.151439 -0.212576 0)
(-0.0164044 -0.298153 0)
(-0.000977047 -0.294655 0)
(0.0321091 0.264053 0)
(0.056338 0.362374 0)
(-0.00373654 0.325055 0)
(-0.096102 0.260658 0)
(-0.192613 0.20104 0)
(-0.28157 0.154041 0)
(-0.358851 0.119137 0)
(-0.424237 0.0935738 0)
(-0.479077 0.0747178 0)
(-0.525049 0.0605809 0)
(-0.563701 0.0497681 0)
(-0.596328 0.0413215 0)
(-0.623973 0.0345835 0)
(-0.647456 0.0290977 0)
(-0.66742 0.0245422 0)
(-0.684366 0.0206856 0)
(-0.698686 0.0173584 0)
(-0.710686 0.0144345 0)
(-0.720603 0.0118176 0)
(-0.728624 0.00943381 0)
(-0.734889 0.00722451 0)
(-0.739505 0.00514275 0)
(-0.742549 0.00314986 0)
(-0.744075 0.00121312 0)
(-0.744114 -0.000696073 0)
(-0.742678 -0.00260375 0)
(-0.739764 -0.00453477 0)
(-0.735347 -0.0065141 0)
(-0.729389 -0.00856823 0)
(-0.721829 -0.0107267 0)
(-0.712588 -0.013024 0)
(-0.70156 -0.0155018 0)
(-0.688611 -0.0182124 0)
(-0.673571 -0.0212227 0)
(-0.656223 -0.0246203 0)
(-0.636292 -0.0285218 0)
(-0.613432 -0.0330853 0)
(-0.587202 -0.0385285 0)
(-0.55704 -0.045156 0)
(-0.522236 -0.0534001 0)
(-0.481897 -0.0638823 0)
(-0.434933 -0.0775008 0)
(-0.380078 -0.0955472 0)
(-0.316038 -0.119829 0)
(-0.241945 -0.152684 0)
(-0.158489 -0.196438 0)
(-0.0699809 -0.251264 0)
(0.0122841 -0.309841 0)
(0.0620506 -0.343154 0)
(0.0330429 -0.249863 0)
(0.0271389 0.205275 0)
(0.0636629 0.357971 0)
(0.0548862 0.375938 0)
(0.00737563 0.338929 0)
(-0.0604767 0.28641 0)
(-0.134334 0.235652 0)
(-0.206035 0.192413 0)
(-0.271796 0.157384 0)
(-0.330344 0.129513 0)
(-0.381665 0.107382 0)
(-0.426292 0.0896973 0)
(-0.464941 0.0754078 0)
(-0.498337 0.0637045 0)
(-0.527135 0.0539756 0)
(-0.5519 0.0457604 0)
(-0.573106 0.038711 0)
(-0.591143 0.0325626 0)
(-0.606327 0.0271112 0)
(-0.618915 0.0221981 0)
(-0.629107 0.017698 0)
(-0.637065 0.0135105 0)
(-0.64291 0.00955377 0)
(-0.646733 0.00575974 0)
(-0.648598 0.00207038 0)
(-0.648544 -0.00156533 0)
(-0.64659 -0.00519392 0)
(-0.642735 -0.00885969 0)
(-0.636957 -0.0126069 0)
(-0.629215 -0.0164822 0)
(-0.61945 -0.0205367 0)
(-0.607578 -0.0248295 0)
(-0.593491 -0.0294309 0)
(-0.577055 -0.0344272 0)
(-0.5581 -0.0399266 0)
(-0.536418 -0.0460676 0)
(-0.511756 -0.0530292 0)
(-0.483808 -0.061046 0)
(-0.452207 -0.0704276 0)
(-0.416528 -0.0815847 0)
(-0.37629 -0.0950618 0)
(-0.330993 -0.111575 0)
(-0.280195 -0.132044 0)
(-0.223684 -0.157583 0)
(-0.161816 -0.189374 0)
(-0.096146 -0.228223 0)
(-0.0304761 -0.273321 0)
(0.0275497 -0.319322 0)
(0.0649427 -0.35067 0)
(0.0657522 -0.331815 0)
(0.0268783 -0.189847 0)
(0.0184351 0.163552 0)
(0.0529625 0.331908 0)
(0.068116 0.387593 0)
(0.0520609 0.38057 0)
(0.0119718 0.345137 0)
(-0.0414233 0.30086 0)
(-0.0999523 0.257293 0)
(-0.158403 0.218284 0)
(-0.213829 0.184836 0)
(-0.264796 0.1567 0)
(-0.310786 0.133176 0)
(-0.351779 0.113475 0)
(-0.388007 0.0968685 0)
(-0.419805 0.0827399 0)
(-0.447534 0.0705825 0)
(-0.471539 0.0599884 0)
(-0.49213 0.0506312 0)
(-0.509578 0.0422498 0)
(-0.52411 0.034634 0)
(-0.535917 0.0276137 0)
(-0.545151 0.0210498 0)
(-0.551933 0.0148269 0)
(-0.556357 0.00884755 0)
(-0.558489 0.00302808 0)
(-0.558375 -0.00270562 0)
(-0.556037 -0.00842124 0)
(-0.55148 -0.0141831 0)
(-0.54469 -0.0200549 0)
(-0.535636 -0.0261029 0)
(-0.524266 -0.0323989 0)
(-0.510512 -0.0390243 0)
(-0.494287 -0.0460738 0)
(-0.47548 -0.0536611 0)
(-0.45396 -0.0619252 0)
(-0.429575 -0.0710387 0)
(-0.402148 -0.0812169 0)
(-0.371487 -0.0927305 0)
(-0.337392 -0.105918 0)
(-0.299678 -0.1212 0)
(-0.258214 -0.139087 0)
(-0.213004 -0.160171 0)
(-0.164314 -0.185081 0)
(-0.112891 -0.214347 0)
(-0.0603109 -0.248076 0)
(-0.00945987 -0.285265 0)
(0.0348906 -0.322437 0)
(0.0655657 -0.351184 0)
(0.0734316 -0.354366 0)
(0.0532083 -0.301696 0)
(0.0179159 -0.148258 0)
(0.0119285 0.13484 0)
(0.0406386 0.301172 0)
(0.0647534 0.379005 0)
(0.0675098 0.396975 0)
(0.0487103 0.380698 0)
(0.014421 0.347983 0)
(-0.0290804 0.309599 0)
(-0.0767841 0.271338 0)
(-0.12516 0.235915 0)
(-0.171961 0.20432 0)
(-0.215889 0.176651 0)
(-0.256282 0.1526 0)
(-0.292873 0.131705 0)
(-0.325631 0.113481 0)
(-0.354652 0.0974764 0)
(-0.380097 0.0832928 0)
(-0.402147 0.0705904 0)
(-0.420982 0.0590828 0)
(-0.436771 0.0485306 0)
(-0.449662 0.0387335 0)
(-0.459782 0.0295233 0)
(-0.467237 0.0207576 0)
(-0.472111 0.0123146 0)
(-0.474467 0.00408787 0)
(-0.474351 -0.00401714 0)
(-0.47179 -0.012087 0)
(-0.466797 -0.0202038 0)
(-0.459368 -0.0284481 0)
(-0.449487 -0.0369023 0)
(-0.437123 -0.0456546 0)
(-0.422236 -0.0548019 0)
(-0.404772 -0.064455 0)
(-0.384669 -0.0747429 0)
(-0.361856 -0.0858182 0)
(-0.336265 -0.0978634 0)
(-0.307831 -0.111097 0)
(-0.27651 -0.125778 0)
(-0.242302 -0.142208 0)
(-0.205287 -0.16073 0)
(-0.165686 -0.181702 0)
(-0.123947 -0.20545 0)
(-0.0808799 -0.232158 0)
(-0.0378462 -0.26165 0)
(0.00300706 -0.292992 0)
(0.0385092 -0.323796 0)
(0.0643691 -0.34909 0)
(0.0754176 -0.359708 0)
(0.0669191 -0.340423 0)
(0.0400851 -0.268994 0)
(0.0114453 -0.119991 0)
(0.00783871 0.114408 0)
(0.0308526 0.272187 0)
(0.0567338 0.361428 0)
(0.0694571 0.397686 0)
(0.0651609 0.398678 0)
(0.0462086 0.378923 0)
(0.0165872 0.348672 0)
(-0.0197156 0.31445 0)
(-0.0593641 0.280044 0)
(-0.0998682 0.247433 0)
(-0.139514 0.217487 0)
(-0.177194 0.190442 0)
(-0.212246 0.1662 0)
(-0.244305 0.144503 0)
(-0.273207 0.125035 0)
(-0.298908 0.107471 0)
(-0.32144 0.0915058 0)
(-0.34087 0.0768655 0)
(-0.357285 0.0633075 0)
(-0.370776 0.0506207 0)
(-0.381428 0.0386224 0)
(-0.389318 0.0271539 0)
(-0.394511 0.0160766 0)
(-0.397063 0.005268 0)
(-0.397015 -0.00538175 0)
(-0.394398 -0.0159735 0)
(-0.389231 -0.0266023 0)
(-0.381525 -0.0373607 0)
(-0.371284 -0.0483418 0)
(-0.358503 -0.0596426 0)
(-0.343175 -0.0713677 0)
(-0.325293 -0.0836321 0)
(-0.30485 -0.0965655 0)
(-0.281852 -0.110315 0)
(-0.256323 -0.125049 0)
(-0.228319 -0.140955 0)
(-0.197947 -0.15824 0)
(-0.165399 -0.17712 0)
(-0.130987 -0.197796 0)
(-0.0952072 -0.220413 0)
(-0.0588189 -0.244976 0)
(-0.0229463 -0.271208 0)
(0.0108028 -0.298314 0)
(0.0402312 -0.324595 0)
(0.0625342 -0.346885 0)
(0.0745076 -0.359776 0)
(0.0731216 -0.354774 0)
(0.0568871 -0.319707 0)
(0.0299439 -0.239394 0)
(0.00743587 -0.100139 0)
(0.00538876 0.0994218 0)
(0.0238138 0.246752 0)
(0.0484277 0.340662 0)
(0.065742 0.389256 0)
(0.0705933 0.404265 0)
(0.0629591 0.396788 0)
(0.0448688 0.375701 0)
(0.0190814 0.347402 0)
(-0.0116626 0.316134 0)
(-0.0450273 0.284506 0)
(-0.0791954 0.253996 0)
(-0.112838 0.22534 0)
(-0.145029 0.198817 0)
(-0.175154 0.174441 0)
(-0.202827 0.152077 0)
(-0.22782 0.131523 0)
(-0.250013 0.11255 0)
(-0.269358 0.0949269 0)
(-0.285851 0.0784356 0)
(-0.299514 0.0628752 0)
(-0.310381 0.0480646 0)
(-0.318494 0.0338415 0)
(-0.323895 0.020061 0)
(-0.326622 0.00659281 0)
(-0.326711 -0.00668111 0)
(-0.324193 -0.0198693 0)
(-0.319096 -0.0330737 0)
(-0.311443 -0.0463922 0)
(-0.301259 -0.0599215 0)
(-0.288569 -0.0737597 0)
(-0.273402 -0.0880085 0)
(-0.255799 -0.102776 0)
(-0.235813 -0.118179 0)
(-0.213526 -0.13434 0)
(-0.18905 -0.151392 0)
(-0.162553 -0.169467 0)
(-0.134276 -0.188693 0)
(-0.104561 -0.209168 0)
(-0.0738919 -0.230927 0)
(-0.0429437 -0.253885 0)
(-0.0126376 -0.277744 0)
(0.0157979 -0.301842 0)
(0.04078 -0.324935 0)
(0.0603739 -0.344892 0)
(0.0724116 -0.358291 0)
(0.074832 -0.359982 0)
(0.0662957 -0.342765 0)
(0.0472639 -0.297488 0)
(0.0227094 -0.214193 0)
(0.00504335 -0.0857935 0)
(0.0039024 0.0880296 0)
(0.0188378 0.22493 0)
(0.041158 0.319565 0)
(0.0600595 0.375944 0)
(0.0703086 0.401635 0)
(0.0705693 0.404794 0)
(0.0614591 0.392682 0)
(0.0446278 0.371077 0)
(0.0221008 0.344217 0)
(-0.00415265 0.315007 0)
(-0.0324296 0.285322 0)
(-0.061359 0.256289 0)
(-0.0898915 0.228524 0)
(-0.117255 0.202306 0)
(-0.142901 0.177702 0)
(-0.166453 0.154657 0)
(-0.187661 0.133045 0)
(-0.206369 0.112704 0)
(-0.222483 0.0934635 0)
(-0.235956 0.0751513 0)
(-0.24677 0.057604 0)
(-0.254925 0.0406689 0)
(-0.260434 0.0242058 0)
(-0.263319 0.00808588 0)
(-0.263604 -0.00780873 0)
(-0.261321 -0.0235869 0)
(-0.2565 -0.0393502 0)
(-0.249181 -0.0551948 0)
(-0.239406 -0.0712134 0)
(-0.227228 -0.0874966 0)
(-0.212713 -0.104134 0)
(-0.195945 -0.121217 0)
(-0.177036 -0.138835 0)
(-0.156129 -0.157076 0)
(-0.133418 -0.176019 0)
(-0.10916 -0.195728 0)
(-0.0836936 -0.216234 0)
(-0.0574681 -0.237509 0)
(-0.0310703 -0.259425 0)
(-0.00525834 -0.281689 0)
(0.0190073 -0.303755 0)
(0.0405432 -0.324685 0)
(0.0579524 -0.34298 0)
(0.0696933 -0.356351 0)
(0.0742619 -0.36148 0)
(0.0705453 -0.353825 0)
(0.0583414 -0.327603 0)
(0.0390939 -0.276174 0)
(0.0175985 -0.193162 0)
(0.00358945 -0.0750808 0)
(0.00296276 0.0790559 0)
(0.0152708 0.206265 0)
(0.0351374 0.299432 0)
(0.0540448 0.360356 0)
(0.0672247 0.393834 0)
(0.0727457 0.405717 0)
(0.0703187 0.401729 0)
(0.0607257 0.386831 0)
(0.0453194 0.364966 0)
(0.0256293 0.339073 0)
(0.00312245 0.311227 0)
(-0.0209147 0.282818 0)
(-0.0454192 0.254724 0)
(-0.0695482 0.227457 0)
(-0.0926556 0.201279 0)
(-0.11426 0.176286 0)
(-0.134011 0.152468 0)
(-0.151661 0.12975 0)
(-0.167039 0.108024 0)
(-0.180032 0.087163 0)
(-0.190571 0.0670342 0)
(-0.198615 0.0475071 0)
(-0.204149 0.0284566 0)
(-0.207173 0.00976512 0)
(-0.207702 -0.00867697 0)
(-0.20576 -0.0269711 0)
(-0.201384 -0.0452111 0)
(-0.194621 -0.0634844 0)
(-0.185532 -0.0818721 0)
(-0.174194 -0.10045 0)
(-0.160704 -0.119288 0)
(-0.145184 -0.138451 0)
(-0.127791 -0.157993 0)
(-0.108722 -0.177956 0)
(-0.0882314 -0.19836 0)
(-0.0666378 -0.219193 0)
(-0.0443458 -0.240389 0)
(-0.0218624 -0.261799 0)
(0.000183613 -0.28315 0)
(0.0210251 -0.303985 0)
(0.0397482 -0.323579 0)
(0.0553021 -0.340835 0)
(0.0665438 -0.354151 0)
(0.0723393 -0.361283 0)
(0.0717557 -0.359218 0)
(0.06437 -0.344135 0)
(0.0506558 -0.311543 0)
(0.0324335 -0.256729 0)
(0.0139282 -0.175673 0)
(0.00266703 -0.0668228 0)
(0.00233744 0.071774 0)
(0.0126462 0.190228 0)
(0.0302247 0.28077 0)
(0.0483532 0.344017 0)
(0.0628983 0.382963 0)
(0.071758 0.40174 0)
(0.074122 0.404757 0)
(0.0701552 0.396126 0)
(0.0606517 0.379353 0)
(0.0467141 0.357235 0)
(0.0295264 0.331889 0)
(0.0102173 0.304848 0)
(-0.0102142 0.277169 0)
(-0.0309246 0.24955 0)
(-0.051227 0.22242 0)
(-0.0705795 0.196017 0)
(-0.0885634 0.170449 0)
(-0.104862 0.145734 0)
(-0.119243 0.121837 0)
(-0.131538 0.0986851 0)
(-0.14163 0.0761887 0)
(-0.149443 0.0542491 0)
(-0.154931 0.0327657 0)
(-0.158075 0.0116403 0)
(-0.158877 -0.00922035 0)
(-0.157355 -0.029903 0)
(-0.153546 -0.0504871 0)
(-0.147504 -0.0710443 0)
(-0.139304 -0.0916382 0)
(-0.12904 -0.112323 0)
(-0.116834 -0.133143 0)
(-0.102838 -0.154129 0)
(-0.0872412 -0.175296 0)
(-0.0702805 -0.196635 0)
(-0.052247 -0.218104 0)
(-0.0334987 -0.239617 0)
(-0.0144714 -0.261015 0)
(0.00430942 -0.282048 0)
(0.0222202 -0.302327 0)
(0.0385362 -0.321275 0)
(0.05244 -0.33806 0)
(0.0630516 -0.351518 0)
(0.0694895 -0.360064 0)
(0.0709796 -0.361615 0)
(0.0670288 -0.353549 0)
(0.0576701 -0.332752 0)
(0.0437252 -0.295809 0)
(0.0270552 -0.23942 0)
(0.0112236 -0.161088 0)
(0.00205134 -0.0602895 0)
(0.00189913 0.0657266 0)
(0.0106559 0.176351 0)
(0.0262029 0.263711 0)
(0.0431945 0.327796 0)
(0.0581318 0.370434 0)
(0.0689698 0.39451 0)
(0.07464 0.403366 0)
(0.0749021 0.400336 0)
(0.0701232 0.388437 0)
(0.0610348 0.370223 0)
(0.0485397 0.347744 0)
(0.0335765 0.322574 0)
(0.0170348 0.295876 0)
(-0.000290577 0.268478 0)
(-0.0177188 0.24094 0)
(-0.0346856 0.213627 0)
(-0.0507345 0.186754 0)
(-0.0655048 0.160433 0)
(-0.0787176 0.134702 0)
(-0.090162 0.109552 0)
(-0.0996833 0.0849408 0)
(-0.107173 0.0608102 0)
(-0.112559 0.0370913 0)
(-0.115803 0.0137126 0)
(-0.116893 -0.00939606 0)
(-0.11584 -0.0323005 0)
(-0.112679 -0.0550597 0)
(-0.107468 -0.0777243 0)
(-0.100288 -0.100335 0)
(-0.0912466 -0.122919 0)
(-0.0804819 -0.14549 0)
(-0.0681653 -0.168043 0)
(-0.0545081 -0.19055 0)
(-0.0397684 -0.212951 0)
(-0.0242578 -0.235145 0)
(-0.00834875 -0.256973 0)
(0.00751802 -0.278204 0)
(0.0228293 -0.298501 0)
(0.0369985 -0.317391 0)
(0.0493731 -0.334223 0)
(0.0592549 -0.348118 0)
(0.0659385 -0.357913 0)
(0.0687782 -0.362112 0)
(0.067289 -0.358854 0)
(0.0612905 -0.345925 0)
(0.0510889 -0.320835 0)
(0.0376445 -0.281025 0)
(0.0226922 -0.224209 0)
(0.00917338 -0.148865 0)
(0.00161938 -0.0550176 0)
(0.00157696 0.0606158 0)
(0.00910012 0.16426 0)
(0.0228707 0.248227 0)
(0.0385878 0.312176 0)
(0.0533204 0.357181 0)
(0.0651877 0.385236 0)
(0.0730304 0.398844 0)
(0.0763637 0.400665 0)
(0.0752483 0.393241 0)
(0.0701167 0.378837 0)
(0.0616181 0.359363 0)
(0.050499 0.336365 0)
(0.0375174 0.311046 0)
(0.0233887 0.284311 0)
(0.00875539 0.256821 0)
(-0.00582686 0.229037 0)
(-0.0198908 0.201271 0)
(-0.0330531 0.17372 0)
(-0.0450063 0.146497 0)
(-0.0555098 0.119653 0)
(-0.0643799 0.0932012 0)
(-0.0714819 0.0671267 0)
(-0.0767229 0.041398 0)
(-0.0800459 0.0159756 0)
(-0.0814255 -0.00918233 0)
(-0.0808651 -0.0341155 0)
(-0.0783951 -0.0588578 0)
(-0.0740726 -0.0834343 0)
(-0.0679822 -0.107858 0)
(-0.0602376 -0.132128 0)
(-0.0509846 -0.156224 0)
(-0.0404045 -0.180103 0)
(-0.0287184 -0.203694 0)
(-0.0161921 -0.226887 0)
(-0.0031409 -0.249527 0)
(0.0100666 -0.271397 0)
(0.0230053 -0.2922 0)
(0.0351948 -0.311538 0)
(0.0461044 -0.328883 0)
(0.0551677 -0.343546 0)
(0.0618077 -0.354644 0)
(0.0654793 -0.361062 0)
(0.0657323 -0.361436 0)
(0.0622981 -0.354145 0)
(0.0552029 -0.337352 0)
(0.044897 -0.309098 0)
(0.0323532 -0.267484 0)
(0.0191119 -0.210939 0)
(0.00757543 -0.138576 0)
(0.00130246 -0.0507019 0)
(0.00133016 0.0562409 0)
(0.00784844 0.153665 0)
(0.0200648 0.234227 0)
(0.0344786 0.297419 0)
(0.0486432 0.343823 0)
(0.0608817 0.374796 0)
(0.0700438 0.392201 0)
(0.0755142 0.398132 0)
(0.0771469 0.394698 0)
(0.0751459 0.383867 0)
(0.0699474 0.367374 0)
(0.0621199 0.346685 0)
(0.0522858 0.322995 0)
(0.041066 0.297246 0)
(0.0290436 0.270161 0)
(0.0167434 0.242278 0)
(0.00462225 0.213984 0)
(-0.00693264 0.185552 0)
(-0.0176012 0.157161 0)
(-0.0271253 0.128927 0)
(-0.0353019 0.100915 0)
(-0.0419776 0.0731548 0)
(-0.0470419 0.0456567 0)
(-0.050423 0.0184166 0)
(-0.0520834 -0.00857562 0)
(-0.0520172 -0.0353298 0)
(-0.0502486 -0.0618512 0)
(-0.0468309 -0.0881364 0)
(-0.0418472 -0.114169 0)
(-0.0354113 -0.139916 0)
(-0.0276699 -0.165323 0)
(-0.018805 -0.19031 0)
(-0.00903707 -0.214764 0)
(0.00137211 -0.238531 0)
(0.0121168 -0.261407 0)
(0.0228461 -0.283124 0)
(0.0331646 -0.303339 0)
(0.0426368 -0.321608 0)
(0.0507967 -0.337374 0)
(0.0571657 -0.349939 0)
(0.0612795 -0.358443 0)
(0.0627293 -0.361851 0)
(0.0612172 -0.358944 0)
(0.0566277 -0.348335 0)
(0.0491121 -0.328521 0)
(0.0391775 -0.297973 0)
(0.0277407 -0.255297 0)
(0.0161297 -0.199429 0)
(0.00629677 -0.12989 0)
(0.00106072 -0.0471347 0)
(0.00113425 0.052462 0)
(0.00681405 0.144343 0)
(0.0176595 0.221606 0)
(0.0307915 0.283661 0)
(0.0441677 0.330766 0)
(0.0563209 0.363828 0)
(0.0661645 0.384217 0)
(0.0730301 0.393571 0)
(0.0766416 0.393619 0)
(0.077037 0.386046 0)
(0.0744818 0.372399 0)
(0.0693899 0.354035 0)
(0.0622552 0.332107 0)
(0.0536001 0.307559 0)
(0.0439375 0.281148 0)
(0.0337466 0.253462 0)
(0.0234584 0.224951 0)
(0.0134488 0.195947 0)
(0.00403742 0.166691 0)
(-0.00451127 0.137355 0)
(-0.0119843 0.108055 0)
(-0.0182159 0.0788681 0)
(-0.0230834 0.0498447 0)
(-0.0265029 0.0210182 0)
(-0.0284262 -0.00758717 0)
(-0.0288383 -0.0359495 0)
(-0.0277554 -0.0640435 0)
(-0.0252246 -0.0918352 0)
(-0.0213233 -0.119278 0)
(-0.0161603 -0.146306 0)
(-0.00987666 -0.172831 0)
(-0.00264776 -0.198737 0)
(0.00531522 -0.223873 0)
(0.0137638 -0.248044 0)
(0.0224117 -0.271005 0)
(0.0309351 -0.29245 0)
(0.0389766 -0.311997 0)
(0.0461516 -0.329177 0)
(0.0520604 -0.34342 0)
(0.0563067 -0.354039 0)
(0.0585243 -0.360217 0)
(0.0584145 -0.361009 0)
(0.0557922 -0.355343 0)
(0.0506428 -0.342045 0)
(0.0431837 -0.319896 0)
(0.033924 -0.287715 0)
(0.0236896 -0.244482 0)
(0.0136036 -0.189499 0)
(0.00524791 -0.122553 0)
(0.000870002 -0.0441702 0)
(0.000973825 0.0491796 0)
(0.0059378 0.136125 0)
(0.0155594 0.210263 0)
(0.0274511 0.270966 0)
(0.0399062 0.318282 0)
(0.0516557 0.352792 0)
(0.0617045 0.375494 0)
(0.0693811 0.38766 0)
(0.074336 0.390698 0)
(0.0764922 0.386033 0)
(0.0759846 0.375027 0)
(0.0730984 0.358918 0)
(0.0682128 0.33879 0)
(0.061755 0.315569 0)
(0.0541643 0.290019 0)
(0.0458659 0.26276 0)
(0.0372547 0.234285 0)
(0.0286846 0.204975 0)
(0.0204638 0.175123 0)
(0.0128536 0.144951 0)
(0.0060691 0.114621 0)
(0.000281791 0.0842551 0)
(-0.00437789 0.0539447 0)
(-0.00781747 0.0237602 0)
(-0.0099798 -0.00623954 0)
(-0.0108409 -0.036 0)
(-0.0104085 -0.0654645 0)
(-0.00872088 -0.0945684 0)
(-0.00584682 -0.123234 0)
(-0.00188564 -0.151363 0)
(0.00303211 -0.178837 0)
(0.00874387 -0.205504 0)
(0.0150543 -0.231178 0)
(0.0217353 -0.25563 0)
(0.0285263 -0.278582 0)
(0.0351369 -0.299694 0)
(0.0412518 -0.31856 0)
(0.0465385 -0.334698 0)
(0.0506603 -0.347536 0)
(0.0532941 -0.35641 0)
(0.0541555 -0.360558 0)
(0.0530304 -0.359126 0)
(0.0498132 -0.351177 0)
(0.04455 -0.335728 0)
(0.0374832 -0.311795 0)
(0.0290906 -0.278468 0)
(0.0200929 -0.235015 0)
(0.0114257 -0.180993 0)
(0.00436702 -0.116371 0)
(0.000714936 -0.0417037 0)
(0.00083881 0.046321 0)
(0.00517837 0.128881 0)
(0.0136929 0.200108 0)
(0.024391 0.259363 0)
(0.0358453 0.306552 0)
(0.0469673 0.342022 0)
(0.0568648 0.366492 0)
(0.0648945 0.380942 0)
(0.0706736 0.386512 0)
(0.074051 0.384402 0)
(0.0750652 0.375797 0)
(0.0738981 0.361811 0)
(0.0708309 0.343454 0)
(0.0662037 0.321611 0)
(0.0603833 0.29704 0)
(0.0537384 0.270375 0)
(0.0466214 0.242134 0)
(0.0393566 0.212739 0)
(0.0322331 0.182524 0)
(0.0255013 0.151751 0)
(0.0193718 0.120628 0)
(0.014016 0.089316 0)
(0.00956758 0.0579447 0)
(0.0061246 0.0266207 0)
(0.00375118 -0.00456327 0)
(0.00247944 -0.0355205 0)
(0.00231079 -0.0661634 0)
(0.00321689 -0.096397 0)
(0.00514015 -0.126113 0)
(0.00799389 -0.155185 0)
(0.0116622 -0.183462 0)
(0.0159997 -0.210761 0)
(0.0208318 -0.236866 0)
(0.0259553 -0.261518 0)
(0.0311398 -0.28441 0)
(0.0361313 -0.305179 0)
(0.0406574 -0.323403 0)
(0.0444362 -0.338591 0)
(0.0471882 -0.350181 0)
(0.0486533 -0.357539 0)
(0.0486122 -0.359959 0)
(0.0469134 -0.356671 0)
(0.0435036 -0.346865 0)
(0.03846 -0.329715 0)
(0.0320224 -0.304429 0)
(0.0246176 -0.270314 0)
(0.0168586 -0.226851 0)
(0.00951391 -0.173781 0)
(0.00361033 -0.111195 0)
(0.000585331 -0.0396587 0)
(0.00072235 0.0438326 0)
(0.00450631 0.122512 0)
(0.0120055 0.191066 0)
(0.0215548 0.248858 0)
(0.031961 0.295697 0)
(0.0422967 0.331765 0)
(0.0517752 0.357566 0)
(0.0597998 0.373852 0)
(0.0659828 0.381543 0)
(0.0701294 0.381645 0)
(0.0722104 0.375184 0)
(0.0723281 0.363155 0)
(0.070682 0.346488 0)
(0.0675356 0.326019 0)
(0.0631884 0.302487 0)
(0.0579525 0.276524 0)
(0.0521352 0.248668 0)
(0.0460269 0.219365 0)
(0.0398919 0.18898 0)
(0.033964 0.157813 0)
(0.0284437 0.126107 0)
(0.0234976 0.09406 0)
(0.0192588 0.0618366 0)
(0.0158277 0.029577 0)
(0.0132735 -0.00259411 0)
(0.0116354 -0.0345595 0)
(0.0109239 -0.066202 0)
(0.0111214 -0.097398 0)
(0.0121831 -0.128011 0)
(0.0140373 -0.157886 0)
(0.0165855 -0.186844 0)
(0.0197028 -0.214675 0)
(0.0232385 -0.241135 0)
(0.0270172 -0.265941 0)
(0.0308409 -0.28876 0)
(0.0344928 -0.309215 0)
(0.0377429 -0.326869 0)
(0.0403562 -0.341233 0)
(0.0421037 -0.351757 0)
(0.0427775 -0.357838 0)
(0.0422091 -0.358822 0)
(0.0402911 -0.35402 0)
(0.0370011 -0.342725 0)
(0.0324262 -0.324246 0)
(0.0267851 -0.297945 0)
(0.0204439 -0.263296 0)
(0.0139102 -0.219939 0)
(0.00780528 -0.167753 0)
(0.00294611 -0.10691 0)
(0.00047418 -0.0379788 0)
(0.000619639 0.0416741 0)
(0.00390015 0.11694 0)
(0.0104561 0.183074 0)
(0.0188963 0.239447 0)
(0.0282263 0.285803 0)
(0.0376623 0.322202 0)
(0.0465199 0.348988 0)
(0.0542599 0.366735 0)
(0.0605084 0.376184 0)
(0.0650502 0.378177 0)
(0.0678113 0.373601 0)
(0.0688345 0.363342 0)
(0.0682536 0.348249 0)
(0.0662665 0.329107 0)
(0.0631118 0.306625 0)
(0.0590478 0.281429 0)
(0.0543368 0.254061 0)
(0.0492326 0.224984 0)
(0.0439713 0.194588 0)
(0.0387661 0.163201 0)
(0.0338031 0.131095 0)
(0.0292402 0.0985014 0)
(0.0252063 0.065615 0)
(0.0218015 0.0326063 0)
(0.0190979 -0.000370824 0)
(0.0171408 -0.0331709 0)
(0.0159492 -0.0656496 0)
(0.0155166 -0.0976567 0)
(0.0158119 -0.12903 0)
(0.0167797 -0.159589 0)
(0.0183408 -0.189128 0)
(0.0203928 -0.217415 0)
(0.0228107 -0.244182 0)
(0.0254485 -0.269123 0)
(0.0281416 -0.291888 0)
(0.03071 -0.312084 0)
(0.032964 -0.329269 0)
(0.0347111 -0.342955 0)
(0.0357662 -0.352606 0)
(0.0359641 -0.357648 0)
(0.0351742 -0.357475 0)
(0.0333184 -0.351465 0)
(0.0303895 -0.339 0)
(0.026469 -0.319497 0)
(0.0217432 -0.292441 0)
(0.0165125 -0.257433 0)
(0.0111849 -0.214235 0)
(0.00625133 -0.162824 0)
(0.00235093 -0.103432 0)
(0.000376509 -0.0366221 0)
(0.000527212 0.0398151 0)
(0.00334394 0.112109 0)
(0.00901276 0.176084 0)
(0.0163777 0.231122 0)
(0.0246154 0.276926 0)
(0.0330695 0.313466 0)
(0.0411538 0.340967 0)
(0.0483913 0.359864 0)
(0.0544351 0.370754 0)
(0.0590663 0.374343 0)
(0.062184 0.371401 0)
(0.0637886 0.362715 0)
(0.063962 0.349058 0)
(0.0628476 0.331163 0)
(0.0606299 0.309707 0)
(0.0575179 0.285301 0)
(0.0537301 0.258485 0)
(0.0494831 0.229731 0)
(0.044983 0.199447 0)
(0.0404193 0.167982 0)
(0.0359608 0.135633 0)
(0.0317534 0.102657 0)
(0.0279188 0.0692757 0)
(0.0245546 0.0356855 0)
(0.0217338 0.0020665 0)
(0.0195062 -0.0314109 0)
(0.0178986 -0.0645781 0)
(0.0169154 -0.0972612 0)
(0.0165396 -0.129275 0)
(0.0167328 -0.160416 0)
(0.017436 -0.190458 0)
(0.0185703 -0.219146 0)
(0.0200376 -0.246193 0)
(0.0217219 -0.271274 0)
(0.0234917 -0.294024 0)
(0.0252028 -0.31404 0)
(0.026703 -0.330873 0)
(0.0278384 -0.344038 0)
(0.0284615 -0.353013 0)
(0.028441 -0.357248 0)
(0.0276745 -0.356178 0)
(0.0261017 -0.349236 0)
(0.0237184 -0.335875 0)
(0.0205904 -0.315597 0)
(0.0168641 -0.287984 0)
(0.0127732 -0.252732 0)
(0.00863158 -0.209697 0)
(0.00481431 -0.158926 0)
(0.00180713 -0.100692 0)
(0.000288698 -0.0355574 0)
(0.000442505 0.0382327 0)
(0.00282559 0.107971 0)
(0.00765075 0.170053 0)
(0.0139682 0.223875 0)
(0.0211042 0.269107 0)
(0.0285169 0.305659 0)
(0.0357126 0.333665 0)
(0.0422791 0.353454 0)
(0.0479043 0.365509 0)
(0.0523782 0.370428 0)
(0.0555868 0.368879 0)
(0.0575015 0.361565 0)
(0.0581648 0.349191 0)
(0.057675 0.33244 0)
(0.0561702 0.311956 0)
(0.0538141 0.28833 0)
(0.0507841 0.262097 0)
(0.04726 0.233732 0)
(0.0434171 0.203652 0)
(0.0394195 0.172223 0)
(0.0354163 0.139761 0)
(0.0315391 0.106544 0)
(0.0278999 0.072814 0)
(0.0245913 0.0387914 0)
(0.0216856 0.00467749 0)
(0.0192357 -0.0293359 0)
(0.017275 -0.0630591 0)
(0.0158185 -0.0962982 0)
(0.0148627 -0.128848 0)
(0.0143866 -0.160486 0)
(0.0143518 -0.190967 0)
(0.0147032 -0.220018 0)
(0.0153697 -0.247336 0)
(0.0162655 -0.272579 0)
(0.0172913 -0.295371 0)
(0.0183374 -0.315298 0)
(0.0192867 -0.331907 0)
(0.0200199 -0.344716 0)
(0.0204214 -0.353211 0)
(0.0203878 -0.356863 0)
(0.0198364 -0.355137 0)
(0.018716 -0.347509 0)
(0.0170175 -0.333488 0)
(0.0147833 -0.312641 0)
(0.012116 -0.28462 0)
(0.0091824 -0.249196 0)
(0.00620845 -0.20629 0)
(0.00346455 -0.156005 0)
(0.0013012 -0.0986431 0)
(0.000208045 -0.0347616 0)
(0.000363567 0.0369094 0)
(0.0023357 0.104492 0)
(0.00635034 0.164952 0)
(0.0116424 0.217695 0)
(0.0176713 0.262374 0)
(0.0239992 0.298854 0)
(0.0302198 0.327204 0)
(0.0359859 0.347672 0)
(0.0410259 0.360655 0)
(0.0451471 0.366661 0)
(0.048233 0.366278 0)
(0.0502368 0.360137 0)
(0.0511716 0.348885 0)
(0.051099 0.333158 0)
(0.0501173 0.313568 0)
(0.0483499 0.290687 0)
(0.0459352 0.265039 0)
(0.0430179 0.237099 0)
(0.0397422 0.207288 0)
(0.0362457 0.175983 0)
(0.0326564 0.143514 0)
(0.0290894 0.110174 0)
(0.0256451 0.0762235 0)
(0.0224092 0.0418998 0)
(0.0194514 0.00742201 0)
(0.0168262 -0.0270005 0)
(0.0145726 -0.0611612 0)
(0.012715 -0.0948493 0)
(0.0112632 -0.127844 0)
(0.010213 -0.159906 0)
(0.00954651 -0.190775 0)
(0.00923239 -0.220165 0)
(0.00922647 -0.247757 0)
(0.00947239 -0.273197 0)
(0.00990264 -0.296098 0)
(0.0104402 -0.316037 0)
(0.0110009 -0.332557 0)
(0.0114969 -0.345174 0)
(0.0118406 -0.353382 0)
(0.0119508 -0.356664 0)
(0.0117591 -0.354507 0)
(0.0112171 -0.346417 0)
(0.0103047 -0.331942 0)
(0.00903659 -0.310694 0)
(0.00746916 -0.28238 0)
(0.00570328 -0.246821 0)
(0.00388147 -0.203989 0)
(0.00217842 -0.154023 0)
(0.000822586 -0.0972469 0)
(0.000132485 -0.034218 0)
(0.000288864 0.0358324 0)
(0.00186674 0.101647 0)
(0.00509542 0.160756 0)
(0.00937881 0.212576 0)
(0.0142974 0.256747 0)
(0.0195089 0.293108 0)
(0.0246901 0.321678 0)
(0.0295586 0.342648 0)
(0.0338866 0.356348 0)
(0.0375046 0.363221 0)
(0.0403014 0.36379 0)
(0.0422204 0.358627 0)
(0.0432531 0.348329 0)
(0.0434318 0.333495 0)
(0.0428203 0.314706 0)
(0.041506 0.292513 0)
(0.0395913 0.267429 0)
(0.037187 0.239925 0)
(0.0344064 0.210425 0)
(0.0313604 0.179309 0)
(0.0281544 0.146918 0)
(0.0248856 0.113555 0)
(0.0216412 0.0794942 0)
(0.0184982 0.044985 0)
(0.0155219 0.0102604 0)
(0.0127669 -0.0244573 0)
(0.0102766 -0.0589482 0)
(0.00808376 -0.0929892 0)
(0.00621049 -0.126346 0)
(0.00466887 -0.15877 0)
(0.00346085 -0.189987 0)
(0.00257851 -0.219699 0)
(0.0020041 -0.247577 0)
(0.00171022 -0.273256 0)
(0.0016602 -0.29634 0)
(0.00180864 -0.316397 0)
(0.00210258 -0.332965 0)
(0.00248313 -0.345557 0)
(0.00288797 -0.353666 0)
(0.00325468 -0.356782 0)
(0.00352487 -0.354403 0)
(0.00364911 -0.346054 0)
(0.00359229 -0.331307 0)
(0.0033389 -0.309804 0)
(0.00289766 -0.281284 0)
(0.0023046 -0.245605 0)
(0.00162257 -0.202772 0)
(0.000936774 -0.152949 0)
(0.000362858 -0.0964777 0)
(6.03959e-05 -0.0339145 0)
(0.000217146 0.0349922 0)
(0.00141247 0.0994169 0)
(0.00387237 0.157448 0)
(0.00715872 0.208511 0)
(0.0109646 0.252242 0)
(0.0150371 0.28846 0)
(0.0191327 0.317154 0)
(0.0230331 0.338476 0)
(0.0265563 0.352709 0)
(0.0295603 0.360246 0)
(0.0319448 0.361563 0)
(0.0336492 0.357186 0)
(0.0346499 0.347674 0)
(0.034955 0.333591 0)
(0.0345989 0.315494 0)
(0.0336362 0.293916 0)
(0.0321358 0.269358 0)
(0.030176 0.242284 0)
(0.0278397 0.213115 0)
(0.0252107 0.182235 0)
(0.0223711 0.149989 0)
(0.0193988 0.116687 0)
(0.0163666 0.0826108 0)
(0.0133407 0.048019 0)
(0.010381 0.0131531 0)
(0.0075405 -0.0217555 0)
(0.00486544 -0.0564784 0)
(0.00239571 -0.0907836 0)
(0.000164846 -0.124429 0)
(-0.00179981 -0.157157 0)
(-0.00347711 -0.188686 0)
(-0.0048523 -0.218709 0)
(-0.00591724 -0.246889 0)
(-0.00667092 -0.272854 0)
(-0.00711987 -0.296197 0)
(-0.00727863 -0.31648 0)
(-0.00717002 -0.333233 0)
(-0.00682515 -0.345961 0)
(-0.0062829 -0.354155 0)
(-0.00558888 -0.357302 0)
(-0.00479355 -0.354902 0)
(-0.00394975 -0.346484 0)
(-0.00310945 -0.331631 0)
(-0.00232011 -0.309999 0)
(-0.001621 -0.281344 0)
(-0.0010401 -0.245544 0)
(-0.000591767 -0.202623 0)
(-0.000276233 -0.152764 0)
(-8.4893e-05 -0.0963177 0)
(-9.53674e-06 -0.0338434 0)
(0.000147335 0.0343826 0)
(0.000967434 0.0977888 0)
(0.00266907 0.155016 0)
(0.00496513 0.205497 0)
(0.00765565 0.248868 0)
(0.0105734 0.284938 0)
(0.0135519 0.313682 0)
(0.0164366 0.335224 0)
(0.0190923 0.349821 0)
(0.0214075 0.357833 0)
(0.0232961 0.359701 0)
(0.0246982 0.355922 0)
(0.0255791 0.347024 0)
(0.0259269 0.333546 0)
(0.0257499 0.316024 0)
(0.0250727 0.294976 0)
(0.0239326 0.270889 0)
(0.0223764 0.244221 0)
(0.0204571 0.21539 0)
(0.0182312 0.184778 0)