/*--------------------------------*- C++ -*----------------------------------*\
  =========                 |
  \\      /  F ield         | OpenFOAM: The Open Source CFD Toolbox
   \\    /   O peration     | Website:  https://openfoam.org
    \\  /    A nd           | Version:  7
     \\/     M anipulation  |
\*---------------------------------------------------------------------------*/
FoamFile
{
    version     2.0;
    format      ascii;
    class       volVectorField;
    location    "0.0628";
    object      U;
}
// * * * * * * * * * * * * * * * * * * * * * * * * * * * * * * * * * * * * * //

dimensions      [0 1 -1 0 0 0 0];

internalField   nonuniform List<vector> 
2500
(
(-0.293797 0.153719 0)
(-0.39793 0.128718 0)
(-0.57797 0.0737925 0)
(-0.696269 0.0408774 0)
(-0.76527 0.0233991 0)
(-0.809625 0.014148 0)
(-0.84024 0.00916452 0)
(-0.862361 0.00635846 0)
(-0.879021 0.00467118 0)
(-0.892003 0.00358279 0)
(-0.902379 0.00283516 0)
(-0.910829 0.00229432 0)
(-0.917806 0.00188644 0)
(-0.923623 0.00156821 0)
(-0.928502 0.00131267 0)
(-0.932605 0.00110214 0)
(-0.936053 0.000924528 0)
(-0.938936 0.000771287 0)
(-0.941321 0.000636174 0)
(-0.943259 0.000514523 0)
(-0.944788 0.000402758 0)
(-0.945937 0.000298069 0)
(-0.946725 0.000198188 0)
(-0.947165 0.000101229 0)
(-0.947264 5.56557e-06 0)
(-0.947025 -9.03055e-05 0)
(-0.946446 -0.000187771 0)
(-0.945518 -0.000288245 0)
(-0.944231 -0.000393249 0)
(-0.942566 -0.000504501 0)
(-0.9405 -0.000624051 0)
(-0.938002 -0.000754445 0)
(-0.935033 -0.000898962 0)
(-0.93154 -0.00106195 0)
(-0.927455 -0.00124934 0)
(-0.922692 -0.00146943 0)
(-0.917131 -0.00173422 0)
(-0.910615 -0.00206163 0)
(-0.902924 -0.00247967 0)
(-0.89375 -0.00303428 0)
(-0.882642 -0.00380505 0)
(-0.868918 -0.00493747 0)
(-0.851493 -0.00671038 0)
(-0.828568 -0.00967511 0)
(-0.797129 -0.0149192 0)
(-0.752027 -0.0244968 0)
(-0.682518 -0.0421432 0)
(-0.56491 -0.0746098 0)
(-0.389299 -0.128119 0)
(-0.290203 -0.152368 0)
(-0.00515864 0.3029 0)
(-0.0270654 0.307345 0)
(-0.171355 0.217806 0)
(-0.308269 0.146609 0)
(-0.417249 0.0992506 0)
(-0.502561 0.0690029 0)
(-0.569042 0.0497607 0)
(-0.621096 0.037227 0)
(-0.662401 0.0287482 0)
(-0.69568 0.0227765 0)
(-0.722866 0.01841 0)
(-0.745334 0.0151093 0)
(-0.764074 0.01254 0)
(-0.779807 0.0104874 0)
(-0.793065 0.00880815 0)
(-0.804247 0.00740371 0)
(-0.813653 0.00620411 0)
(-0.821514 0.00515848 0)
(-0.828003 0.00422894 0)
(-0.833253 0.00338667 0)
(-0.837365 0.00260924 0)
(-0.840414 0.00187882 0)
(-0.842453 0.00118084 0)
(-0.843518 0.000503071 0)
(-0.84363 -0.00016516 0)
(-0.842796 -0.00083356 0)
(-0.841011 -0.00151138 0)
(-0.838257 -0.00220797 0)
(-0.834504 -0.00293328 0)
(-0.829706 -0.00369854 0)
(-0.823805 -0.00451696 0)
(-0.816721 -0.00540474 0)
(-0.808352 -0.00638243 0)
(-0.798566 -0.00747677 0)
(-0.787194 -0.00872342 0)
(-0.774018 -0.010171 0)
(-0.75875 -0.0118874 0)
(-0.741014 -0.0139694 0)
(-0.720306 -0.0165592 0)
(-0.695942 -0.0198721 0)
(-0.666989 -0.0242437 0)
(-0.63215 -0.0302152 0)
(-0.589616 -0.0386828 0)
(-0.536872 -0.0511588 0)
(-0.470599 -0.0701714 0)
(-0.386948 -0.0996688 0)
(-0.281729 -0.145073 0)
(-0.151451 -0.212581 0)
(-0.0164102 -0.298159 0)
(-0.000978452 -0.294658 0)
(0.0321094 0.264054 0)
(0.0563429 0.362369 0)
(-0.00371949 0.32504 0)
(-0.0960654 0.260633 0)
(-0.19255 0.201006 0)
(-0.281475 0.154 0)
(-0.358718 0.119089 0)
(-0.424062 0.0935203 0)
(-0.478857 0.07466 0)
(-0.52478 0.0605199 0)
(-0.563382 0.0497048 0)
(-0.595958 0.0412568 0)
(-0.623551 0.0345183 0)
(-0.646983 0.029033 0)
(-0.666896 0.024479 0)
(-0.683793 0.0206247 0)
(-0.698067 0.0173009 0)
(-0.710024 0.0143812 0)
(-0.719903 0.0117696 0)
(-0.72789 0.00939183 0)
(-0.734126 0.00718945 0)
(-0.738718 0.00511535 0)
(-0.741746 0.00313078 0)
(-0.743261 0.0012029 0)
(-0.743297 -0.000697036 0)
(-0.741866 -0.0025952 0)
(-0.738963 -0.00451661 0)
(-0.734566 -0.00648642 0)
(-0.728633 -0.00853132 0)
(-0.721106 -0.010681 0)
(-0.711904 -0.0129702 0)
(-0.700922 -0.0154408 0)
(-0.688023 -0.0181453 0)
(-0.673036 -0.0211507 0)
(-0.655745 -0.0245448 0)
(-0.635873 -0.0284444 0)
(-0.613072 -0.0330078 0)
(-0.586901 -0.0384526 0)
(-0.556796 -0.0450835 0)
(-0.522045 -0.053333 0)
(-0.481756 -0.0638223 0)
(-0.434835 -0.0774496 0)
(-0.380017 -0.0955061 0)
(-0.316006 -0.119799 0)
(-0.241934 -0.152665 0)
(-0.158492 -0.196431 0)
(-0.0699904 -0.251266 0)
(0.0122744 -0.30985 0)
(0.0620448 -0.343166 0)
(0.0330413 -0.24987 0)
(0.0271402 0.205273 0)
(0.0636725 0.357953 0)
(0.0549151 0.375903 0)
(0.00743375 0.338876 0)
(-0.0603807 0.28634 0)
(-0.134192 0.235568 0)
(-0.205841 0.192317 0)
(-0.271544 0.157278 0)
(-0.33003 0.129399 0)
(-0.381285 0.107263 0)
(-0.425844 0.0895739 0)
(-0.464425 0.0752822 0)
(-0.497751 0.0635785 0)
(-0.52648 0.053851 0)
(-0.551178 0.045639 0)
(-0.572321 0.0385947 0)
(-0.590297 0.0324531 0)
(-0.605426 0.0270103 0)
(-0.617962 0.0221076 0)
(-0.628111 0.0176194 0)
(-0.636032 0.0134454 0)
(-0.641847 0.0095035 0)
(-0.645649 0.00572547 0)
(-0.647502 0.00205306 0)
(-0.647446 -0.00156501 0)
(-0.645499 -0.00517556 0)
(-0.641659 -0.00882321 0)
(-0.635907 -0.0125526 0)
(-0.6282 -0.0164105 0)
(-0.618478 -0.0204487 0)
(-0.606657 -0.0247265 0)
(-0.592629 -0.0293146 0)
(-0.576258 -0.0342996 0)
(-0.557372 -0.0397901 0)
(-0.535764 -0.0459248 0)
(-0.511178 -0.052883 0)
(-0.483307 -0.0608996 0)
(-0.451782 -0.0702843 0)
(-0.416177 -0.0814478 0)
(-0.376009 -0.0949346 0)
(-0.330776 -0.111461 0)
(-0.280036 -0.131945 0)
(-0.223574 -0.157502 0)
(-0.161748 -0.189314 0)
(-0.0961089 -0.228183 0)
(-0.0304611 -0.2733 0)
(0.0275515 -0.319318 0)
(0.0649389 -0.35068 0)
(0.0657484 -0.331829 0)
(0.0268769 -0.189857 0)
(0.0184371 0.163544 0)
(0.0529764 0.331874 0)
(0.0681563 0.387529 0)
(0.0521395 0.380478 0)
(0.0120993 0.34502 0)
(-0.0412375 0.30072 0)
(-0.0997003 0.257134 0)
(-0.158078 0.21811 0)
(-0.213426 0.18465 0)
(-0.264312 0.156506 0)
(-0.310218 0.132976 0)
(-0.351126 0.113271 0)
(-0.387269 0.0966654 0)
(-0.418983 0.0825397 0)
(-0.446631 0.0703881 0)
(-0.470558 0.0598027 0)
(-0.491076 0.0504571 0)
(-0.508456 0.0420899 0)
(-0.522928 0.0344911 0)
(-0.534682 0.0274904 0)
(-0.543871 0.0209483 0)
(-0.550619 0.0147492 0)
(-0.555019 0.00879547 0)
(-0.557137 0.003003 0)
(-0.55702 -0.00270273 0)
(-0.554691 -0.00838984 0)
(-0.550154 -0.0141231 0)
(-0.543396 -0.0199668 0)
(-0.534383 -0.0259878 0)
(-0.523065 -0.0322584 0)
(-0.509373 -0.0388604 0)
(-0.493218 -0.0458893 0)
(-0.474488 -0.0534591 0)
(-0.453052 -0.0617095 0)
(-0.428754 -0.0708133 0)
(-0.401417 -0.0809864 0)
(-0.370848 -0.0924996 0)
(-0.336844 -0.105692 0)
(-0.299218 -0.120984 0)
(-0.257838 -0.138885 0)
(-0.212707 -0.159988 0)
(-0.164087 -0.184922 0)
(-0.112726 -0.214215 0)
(-0.0601982 -0.247974 0)
(-0.00938926 -0.285193 0)
(0.0349295 -0.322394 0)
(0.065583 -0.351167 0)
(0.0734364 -0.354369 0)
(0.0532079 -0.301711 0)
(0.0179152 -0.14827 0)
(0.0119311 0.134824 0)
(0.0406563 0.301115 0)
(0.0648035 0.378905 0)
(0.0676065 0.396835 0)
(0.0488659 0.380521 0)
(0.0146463 0.347775 0)
(-0.0287763 0.309364 0)
(-0.0763939 0.271082 0)
(-0.124678 0.235642 0)
(-0.171383 0.204035 0)
(-0.215213 0.176359 0)
(-0.255506 0.152304 0)
(-0.291997 0.13141 0)
(-0.324658 0.113191 0)
(-0.353585 0.0971957 0)
(-0.37894 0.0830254 0)
(-0.400905 0.0703403 0)
(-0.419663 0.058854 0)
(-0.435382 0.0483268 0)
(-0.448213 0.0385582 0)
(-0.458284 0.0293797 0)
(-0.4657 0.0206486 0)
(-0.470546 0.0122424 0)
(-0.472887 0.00405437 0)
(-0.472769 -0.00401065 0)
(-0.470218 -0.0120399 0)
(-0.465247 -0.0201162 0)
(-0.457854 -0.0283206 0)
(-0.448021 -0.0367367 0)
(-0.435717 -0.045453 0)
(-0.420899 -0.0545675 0)
(-0.403514 -0.0641916 0)
(-0.383498 -0.074455 0)
(-0.360779 -0.085511 0)
(-0.335287 -0.0975426 0)
(-0.306955 -0.110769 0)
(-0.275738 -0.125449 0)
(-0.241633 -0.141886 0)
(-0.204719 -0.160421 0)
(-0.165214 -0.181412 0)
(-0.123565 -0.205187 0)
(-0.0805815 -0.231926 0)
(-0.0376216 -0.261455 0)
(0.00316799 -0.292837 0)
(0.0386173 -0.323682 0)
(0.0644353 -0.349016 0)
(0.0754531 -0.35967 0)
(0.066934 -0.340414 0)
(0.0400887 -0.269004 0)
(0.0114453 -0.120002 0)
(0.0078418 0.114382 0)
(0.0308733 0.272102 0)
(0.0567921 0.361285 0)
(0.069569 0.397489 0)
(0.0653402 0.398432 0)
(0.0464674 0.378635 0)
(0.0169358 0.348349 0)
(-0.0192692 0.314098 0)
(-0.0588137 0.279671 0)
(-0.0992091 0.247044 0)
(-0.138743 0.217088 0)
(-0.176312 0.190039 0)
(-0.211251 0.1658 0)
(-0.243201 0.144111 0)
(-0.271997 0.124656 0)
(-0.297598 0.107111 0)
(-0.320035 0.09117 0)
(-0.33938 0.0765591 0)
(-0.355719 0.0630352 0)
(-0.369143 0.0503873 0)
(-0.379739 0.0384319 0)
(-0.387586 0.0270099 0)
(-0.392749 0.0159821 0)
(-0.395285 0.00522529 0)
(-0.395234 -0.00537109 0)
(-0.392627 -0.0159088 0)
(-0.387486 -0.0264838 0)
(-0.379819 -0.0371894 0)
(-0.36963 -0.04812 0)
(-0.356913 -0.0593734 0)
(-0.341661 -0.0710551 0)
(-0.323864 -0.0832813 0)
(-0.303517 -0.0961824 0)
(-0.280621 -0.109907 0)
(-0.2552 -0.124622 0)
(-0.227307 -0.140518 0)
(-0.19705 -0.157802 0)
(-0.164615 -0.176689 0)
(-0.130314 -0.197382 0)
(-0.0946417 -0.220024 0)
(-0.0583548 -0.24462 0)
(-0.0225761 -0.270892 0)
(0.0110881 -0.298044 0)
(0.0404418 -0.324376 0)
(0.0626812 -0.346718 0)
(0.0746025 -0.359661 0)
(0.0731762 -0.354706 0)
(0.0569128 -0.319679 0)
(0.0299517 -0.239393 0)
(0.00743664 -0.100148 0)
(0.00539218 0.0993841 0)
(0.0238367 0.246636 0)
(0.0484924 0.340471 0)
(0.065866 0.388995 0)
(0.0707917 0.403942 0)
(0.063245 0.39641 0)
(0.0452534 0.375279 0)
(0.0195736 0.346944 0)
(-0.011056 0.315648 0)
(-0.0443015 0.284001 0)
(-0.0783475 0.25348 0)
(-0.111867 0.22482 0)
(-0.143935 0.198301 0)
(-0.173941 0.173936 0)
(-0.201499 0.15159 0)
(-0.226382 0.131061 0)
(-0.248473 0.11212 0)
(-0.267725 0.0945353 0)
(-0.284135 0.0780884 0)
(-0.297725 0.0625781 0)
(-0.308533 0.0478227 0)
(-0.316599 0.0336592 0)
(-0.321967 0.019942 0)
(-0.324676 0.00653983 0)
(-0.324761 -0.00666626 0)
(-0.322255 -0.0197859 0)
(-0.317184 -0.0329222 0)
(-0.309572 -0.0461741 0)
(-0.299442 -0.0596396 0)
(-0.28682 -0.073418 0)
(-0.271733 -0.0876123 0)
(-0.254221 -0.102332 0)
(-0.234337 -0.117693 0)
(-0.212157 -0.133822 0)
(-0.187797 -0.150851 0)
(-0.161419 -0.168914 0)
(-0.133263 -0.188138 0)
(-0.10367 -0.20862 0)
(-0.073121 -0.230398 0)
(-0.0422894 -0.253387 0)
(-0.0120944 -0.277285 0)
(0.0162372 -0.301431 0)
(0.0411243 -0.32458 0)
(0.0606331 -0.344598 0)
(0.0725969 -0.358061 0)
(0.0749552 -0.359816 0)
(0.0663692 -0.342659 0)
(0.0473002 -0.297433 0)
(0.0227214 -0.214177 0)
(0.00504486 -0.0857968 0)
(0.00390605 0.0879797 0)
(0.0188623 0.22478 0)
(0.0412273 0.319321 0)
(0.0601923 0.375613 0)
(0.070521 0.401227 0)
(0.0708754 0.40432 0)
(0.0618709 0.392152 0)
(0.0451547 0.370503 0)
(0.0227503 0.343609 0)
(-0.00337545 0.314377 0)
(-0.0315217 0.284679 0)
(-0.0603194 0.255642 0)
(-0.0887212 0.227882 0)
(-0.115957 0.201678 0)
(-0.14148 0.177099 0)
(-0.164915 0.154086 0)
(-0.186014 0.132513 0)
(-0.204622 0.112221 0)
(-0.220648 0.0930358 0)
(-0.234044 0.0747858 0)
(-0.244794 0.0573068 0)
(-0.252898 0.0404454 0)
(-0.258372 0.0240601 0)
(-0.261237 0.0080213 0)
(-0.261518 -0.00779021 0)
(-0.259245 -0.0234845 0)
(-0.254452 -0.0391646 0)
(-0.247174 -0.0549281 0)
(-0.237455 -0.0708689 0)
(-0.225347 -0.0870793 0)
(-0.210915 -0.103651 0)
(-0.194242 -0.120675 0)
(-0.175436 -0.138243 0)
(-0.154642 -0.156444 0)
(-0.132051 -0.175358 0)
(-0.107917 -0.195051 0)
(-0.0825787 -0.215553 0)
(-0.0564815 -0.236837 0)
(-0.030211 -0.258774 0)
(-0.00452321 -0.281073 0)
(0.0196231 -0.303184 0)
(0.0410465 -0.32417 0)
(0.0583514 -0.34253 0)
(0.0699979 -0.355972 0)
(0.0744831 -0.361177 0)
(0.0706951 -0.353598 0)
(0.0584328 -0.327448 0)
(0.0391402 -0.276085 0)
(0.0176143 -0.193125 0)
(0.00359163 -0.075077 0)
(0.00296653 0.0789931 0)
(0.0152963 0.20608 0)
(0.0352096 0.299133 0)
(0.0541834 0.359951 0)
(0.0674465 0.393337 0)
(0.0730653 0.40514 0)
(0.0707487 0.401086 0)
(0.0612763 0.386135 0)
(0.0459984 0.36423 0)
(0.0264422 0.33831 0)
(0.00407247 0.310449 0)
(-0.0198267 0.282036 0)
(-0.044194 0.253949 0)
(-0.0681888 0.226701 0)
(-0.091167 0.200552 0)
(-0.112649 0.175599 0)
(-0.132286 0.151829 0)
(-0.149831 0.12917 0)
(-0.165116 0.107511 0)
(-0.178028 0.0867251 0)
(-0.1885 0.0666784 0)
(-0.196491 0.0472395 0)
(-0.201987 0.0282821 0)
(-0.20499 0.00968733 0)
(-0.205512 -0.00865579 0)
(-0.20358 -0.0268502 0)
(-0.19923 -0.0449914 0)
(-0.192508 -0.0631683 0)
(-0.183476 -0.0814639 0)
(-0.172209 -0.0999555 0)
(-0.158802 -0.118715 0)
(-0.143378 -0.137808 0)
(-0.126091 -0.15729 0)
(-0.107139 -0.177206 0)
(-0.0867703 -0.197576 0)
(-0.0653048 -0.218388 0)
(-0.0431443 -0.239577 0)
(-0.020794 -0.260996 0)
(0.00111945 -0.282371 0)
(0.0218307 -0.303243 0)
(0.0404278 -0.322889 0)
(0.055862 -0.340208 0)
(0.0669917 -0.353598 0)
(0.0726845 -0.360812 0)
(0.072009 -0.358834 0)
(0.0645436 -0.343839 0)
(0.050763 -0.311333 0)
(0.0324887 -0.256599 0)
(0.0139474 -0.17561 0)
(0.00266981 -0.0668101 0)
(0.00234125 0.071698 0)
(0.0126722 0.190006 0)
(0.0302983 0.280413 0)
(0.0484946 0.343537 0)
(0.0631247 0.382375 0)
(0.0720846 0.401058 0)
(0.0745617 0.403997 0)
(0.0707186 0.395304 0)
(0.0613471 0.378484 0)
(0.0475472 0.356334 0)
(0.0305007 0.33097 0)
(0.0113336 0.303925 0)
(-0.00895647 0.276256 0)
(-0.0295282 0.24866 0)
(-0.0496974 0.221564 0)
(-0.0689234 0.195208 0)
(-0.0867892 0.169699 0)
(-0.10298 0.145053 0)
(-0.117265 0.121235 0)
(-0.129475 0.0981715 0)
(-0.139497 0.0757714 0)
(-0.147255 0.0539349 0)
(-0.152703 0.0325602 0)
(-0.155824 0.0115475 0)
(-0.156617 -0.00919797 0)
(-0.155103 -0.0297647 0)
(-0.151319 -0.050234 0)
(-0.145318 -0.0706795 0)
(-0.137174 -0.0911664 0)
(-0.12698 -0.111751 0)
(-0.114858 -0.132479 0)
(-0.100957 -0.153384 0)
(-0.0854673 -0.174482 0)
(-0.0686227 -0.195765 0)
(-0.0507131 -0.217193 0)
(-0.0320945 -0.23868 0)
(-0.0132011 -0.260069 0)
(0.00544375 -0.28111 0)
(0.0232183 -0.301413 0)
(0.0393997 -0.320402 0)
(0.0531726 -0.337244 0)
(0.0636588 -0.350772 0)
(0.0699784 -0.3594 0)
(0.071359 -0.361042 0)
(0.0673094 -0.353075 0)
(0.0578639 -0.332379 0)
(0.043846 -0.295537 0)
(0.027118 -0.239243 0)
(0.0112457 -0.160995 0)
(0.00205461 -0.0602661 0)
(0.0019029 0.0656373 0)
(0.0106818 0.176093 0)
(0.0262765 0.263296 0)
(0.043336 0.32724 0)
(0.0583586 0.369752 0)
(0.0692972 0.39372 0)
(0.0750812 0.402487 0)
(0.075468 0.399384 0)
(0.0708221 0.387431 0)
(0.0618729 0.369181 0)
(0.0495206 0.346682 0)
(0.0347015 0.321508 0)
(0.0183033 0.294822 0)
(0.0011185 0.26745 0)
(-0.0161742 0.239953 0)
(-0.0330123 0.212695 0)
(-0.0489409 0.18589 0)
(-0.0636012 0.159649 0)
(-0.0767154 0.134009 0)
(-0.0880739 0.10896 0)
(-0.0975232 0.0844596 0)
(-0.104955 0.0604473 0)
(-0.1103 0.0368528 0)
(-0.113518 0.0136029 0)
(-0.114598 -0.00937425 0)
(-0.113551 -0.0321465 0)
(-0.110413 -0.0547749 0)
(-0.105241 -0.0773121 0)
(-0.0981147 -0.0998005 0)
(-0.0891422 -0.12227 0)
(-0.0784595 -0.144737 0)
(-0.0662373 -0.167198 0)
(-0.0526858 -0.189625 0)
(-0.0380614 -0.211961 0)
(-0.0226741 -0.234106 0)
(-0.00689484 -0.255904 0)
(0.00883756 -0.277122 0)
(0.0240117 -0.297425 0)
(0.0380428 -0.31634 0)
(0.0502805 -0.333216 0)
(0.0600281 -0.347171 0)
(0.0665823 -0.357042 0)
(0.0692991 -0.361331 0)
(0.0676954 -0.358175 0)
(0.0615927 -0.345355 0)
(0.0512989 -0.320379 0)
(0.0377761 -0.280685 0)
(0.0227611 -0.22398 0)
(0.00919785 -0.148739 0)
(0.00162304 -0.0549821 0)
(0.00158064 0.0605135 0)
(0.00912546 0.163965 0)
(0.0229429 0.247755 0)
(0.0387268 0.311543 0)
(0.0535435 0.356407 0)
(0.0655102 0.384339 0)
(0.0734654 0.397846 0)
(0.0769221 0.399585 0)
(0.0759387 0.3921 0)
(0.0709453 0.377654 0)
(0.062589 0.358157 0)
(0.0516137 0.335155 0)
(0.0387753 0.309849 0)
(0.0247871 0.283145 0)
(0.0102895 0.255701 0)
(-0.00416361 0.22798 0)
(-0.0181068 0.200291 0)
(-0.0311583 0.172831 0)
(-0.0430121 0.14571 0)
(-0.0534287 0.118981 0)
(-0.0622256 0.0926546 0)
(-0.069269 0.0667133 0)
(-0.0744666 0.0411247 0)
(-0.0777619 0.0158472 0)
(-0.0791299 -0.00916306 0)
(-0.0785739 -0.0339479 0)
(-0.0761244 -0.0585434 0)
(-0.0718381 -0.0829769 0)
(-0.065799 -0.107264 0)
(-0.0581202 -0.131406 0)
(-0.0489465 -0.155384 0)
(-0.0384582 -0.179158 0)
(-0.0268751 -0.202659 0)
(-0.0144618 -0.225778 0)
(-0.00153182 -0.248363 0)
(0.0115475 -0.270196 0)
(0.0243531 -0.290983 0)
(0.0364061 -0.310325 0)
(0.0471777 -0.327694 0)
(0.0561034 -0.342402 0)
(0.0626078 -0.353564 0)
(0.066148 -0.360063 0)
(0.0662754 -0.360534 0)
(0.0627235 -0.353354 0)
(0.0555206 -0.336682 0)
(0.0451186 -0.308555 0)
(0.0324927 -0.267071 0)
(0.0191852 -0.210655 0)
(0.00760159 -0.138415 0)
(0.00130639 -0.0506534 0)
(0.00133368 0.0561258 0)
(0.00787281 0.153334 0)
(0.0201344 0.233699 0)
(0.0346129 0.296712 0)
(0.0488588 0.342957 0)
(0.0611938 0.373795 0)
(0.0704652 0.391085 0)
(0.0760558 0.396925 0)
(0.0778173 0.393422 0)
(0.0759515 0.382544 0)
(0.0708923 0.366025 0)
(0.0632059 0.345332 0)
(0.0535127 0.321657 0)
(0.0424312 0.295943 0)
(0.0305428 0.26891 0)
(0.0183702 0.241096 0)
(0.00636868 0.212888 0)
(-0.00507622 0.184557 0)
(-0.0156458 0.156282 0)
(-0.0250831 0.128176 0)
(-0.0331863 0.100302 0)
(-0.0398027 0.0726898 0)
(-0.0448225 0.0453472 0)
(-0.0481745 0.0182676 0)
(-0.0498214 -0.00856098 0)
(-0.0497574 -0.0351509 0)
(-0.0480066 -0.0615098 0)
(-0.044622 -0.0876367 0)
(-0.0396863 -0.113518 0)
(-0.0333126 -0.139123 0)
(-0.0256467 -0.164399 0)
(-0.0168697 -0.18927 0)
(-0.00720093 -0.213623 0)
(0.00309913 -0.237307 0)
(0.0137262 -0.260119 0)
(0.0243307 -0.281794 0)
(0.034519 -0.301987 0)
(0.0438571 -0.320258 0)
(0.0518809 -0.336048 0)
(0.0581135 -0.348658 0)
(0.0620924 -0.357229 0)
(0.0634106 -0.360724 0)
(0.0617724 -0.35792 0)
(0.0570639 -0.34743 0)
(0.0494387 -0.327747 0)
(0.039406 -0.29734 0)
(0.0278849 -0.254808 0)
(0.0162057 -0.199087 0)
(0.00632398 -0.129692 0)
(0.00106483 -0.0470725 0)
(0.00113756 0.0523348 0)
(0.00683708 0.143978 0)
(0.0177254 0.221024 0)
(0.0309187 0.282882 0)
(0.0443724 0.329813 0)
(0.0566176 0.362725 0)
(0.0665656 0.382989 0)
(0.0735463 0.392242 0)
(0.0772814 0.392214 0)
(0.0778067 0.384588 0)
(0.0753858 0.370912 0)
(0.0704302 0.352543 0)
(0.0634318 0.330631 0)
(0.0549109 0.306121 0)
(0.0453785 0.279767 0)
(0.0353119 0.252158 0)
(0.0251404 0.223741 0)
(0.0152385 0.194848 0)
(0.00592433 0.165719 0)
(-0.00253887 0.136524 0)
(-0.00993912 0.107376 0)
(-0.0161116 0.078351 0)
(-0.020934 0.0494977 0)
(-0.0243232 0.0208471 0)
(-0.0262313 -0.00757926 0)
(-0.0266432 -0.0357619 0)
(-0.0255753 -0.0636781 0)
(-0.0230742 -0.0912968 0)
(-0.0192169 -0.118573 0)
(-0.0141117 -0.145445 0)
(-0.00789889 -0.171827 0)
(-0.000752956 -0.197605 0)
(0.007116 -0.222629 0)
(0.0154607 -0.246708 0)
(0.0239959 -0.269598 0)
(0.0323995 -0.290994 0)
(0.0403154 -0.310515 0)
(0.0473607 -0.327694 0)
(0.0531371 -0.341959 0)
(0.0572502 -0.352623 0)
(0.0593355 -0.358871 0)
(0.0590961 -0.359753 0)
(0.0563489 -0.354196 0)
(0.0510813 -0.341025 0)
(0.0435128 -0.319018 0)
(0.0341548 -0.286989 0)
(0.0238356 -0.243917 0)
(0.0136806 -0.189098 0)
(0.00527554 -0.122316 0)
(0.00087419 -0.0440938 0)
(0.00097688 0.049041 0)
(0.00595914 0.135729 0)
(0.0156206 0.209631 0)
(0.0275695 0.270121 0)
(0.040097 0.317247 0)
(0.0519325 0.351594 0)
(0.0620792 0.374158 0)
(0.069864 0.386214 0)
(0.0749353 0.389168 0)
(0.0772143 0.384447 0)
(0.0768339 0.373409 0)
(0.0740771 0.357292 0)
(0.0693212 0.337182 0)
(0.0629915 0.314001 0)
(0.0555253 0.288513 0)
(0.0473461 0.261337 0)
(0.0388471 0.232964 0)
(0.0303808 0.203775 0)
(0.022254 0.174061 0)
(0.0147269 0.144041 0)
(0.00801354 0.113876 0)
(0.00228453 0.0836859 0)
(-0.00233027 0.0535598 0)
(-0.00573883 0.0235657 0)
(-0.00788439 -0.00624033 0)
(-0.00874306 -0.0358064 0)
(-0.00832248 -0.0650785 0)
(-0.00666078 -0.093995 0)
(-0.00382633 -0.122481 0)
(8.20634e-05 -0.150441 0)
(0.00493452 -0.177759 0)
(0.0105693 -0.204286 0)
(0.016792 -0.229838 0)
(0.0233755 -0.254189 0)
(0.0300604 -0.277061 0)
(0.0365577 -0.298118 0)
(0.0425533 -0.316954 0)
(0.0477162 -0.333086 0)
(0.0517112 -0.345944 0)
(0.0542169 -0.354864 0)
(0.0549506 -0.359082 0)
(0.0536999 -0.357743 0)
(0.0503612 -0.34991 0)
(0.0449824 -0.334595 0)
(0.0378084 -0.310813 0)
(0.0293191 -0.277651 0)
(0.0202376 -0.234373 0)
(0.0115022 -0.180533 0)
(0.00439448 -0.116096 0)
(0.000719103 -0.041613 0)
(0.000841568 0.0461721 0)
(0.00519771 0.128455 0)
(0.0137485 0.199429 0)
(0.0244987 0.258455 0)
(0.0360192 0.30544 0)
(0.04722 0.340735 0)
(0.0572075 0.365057 0)
(0.0653368 0.379388 0)
(0.0712236 0.384867 0)
(0.0747148 0.382694 0)
(0.075847 0.374054 0)
(0.0748006 0.36006 0)
(0.0718546 0.341721 0)
(0.0673474 0.31992 0)
(0.0616441 0.295415 0)
(0.0551116 0.268839 0)
(0.0481007 0.240708 0)
(0.0409343 0.211443 0)
(0.0339004 0.181375 0)
(0.027248 0.150766 0)
(0.0211869 0.119819 0)
(0.0158877 0.0886957 0)
(0.0114835 0.0575219 0)
(0.00807174 0.0264018 0)
(0.00571633 -0.00457458 0)
(0.00444922 -0.0353235 0)
(0.00427185 -0.0657603 0)
(0.00515606 -0.0957931 0)
(0.00704457 -0.125317 0)
(0.00985114 -0.154207 0)
(0.0134604 -0.182316 0)
(0.0177278 -0.209464 0)
(0.0224795 -0.235438 0)
(0.0275132 -0.259979 0)
(0.0325995 -0.282784 0)
(0.0374856 -0.303491 0)
(0.0419003 -0.321678 0)
(0.0455631 -0.336857 0)
(0.0481957 -0.348465 0)
(0.0495397 -0.355868 0)
(0.0493774 -0.358359 0)
(0.0475589 -0.355168 0)
(0.0440329 -0.345481 0)
(0.0388784 -0.328472 0)
(0.0323375 -0.303347 0)
(0.0248394 -0.269408 0)
(0.0169992 -0.226133 0)
(0.00958834 -0.173262 0)
(0.00363706 -0.110881 0)
(0.00058939 -0.0395541 0)
(0.000724772 0.0436743 0)
(0.00452338 0.12206 0)
(0.0120547 0.190345 0)
(0.0216503 0.247894 0)
(0.0321154 0.294517 0)
(0.0425217 0.330398 0)
(0.0520809 0.356041 0)
(0.0601952 0.3722 0)
(0.0664753 0.379793 0)
(0.0707251 0.379826 0)
(0.0729134 0.373326 0)
(0.0731412 0.361288 0)
(0.071606 0.344638 0)
(0.0685699 0.324214 0)
(0.0643306 0.300751 0)
(0.0591985 0.274883 0)
(0.0534798 0.247143 0)
(0.0474632 0.217977 0)
(0.0414119 0.187749 0)
(0.0355587 0.156755 0)
(0.0301032 0.125237 0)
(0.0252112 0.0933901 0)
(0.0210151 0.0613764 0)
(0.017615 0.0293333 0)
(0.0150797 -0.00261755 0)
(0.0134482 -0.0343618 0)
(0.0127311 -0.0657855 0)
(0.0129109 -0.096768 0)
(0.0139431 -0.127176 0)
(0.0157562 -0.156858 0)
(0.0182524 -0.185637 0)
(0.0213073 -0.213307 0)
(0.0247708 -0.239626 0)
(0.0284684 -0.264312 0)
(0.0322031 -0.287037 0)
(0.035759 -0.307422 0)
(0.0389071 -0.325035 0)
(0.0414137 -0.339386 0)
(0.043051 -0.349925 0)
(0.0436125 -0.35605 0)
(0.0429313 -0.357105 0)
(0.0409015 -0.352401 0)
(0.0375024 -0.34123 0)
(0.0328232 -0.322899 0)
(0.0270845 -0.296767 0)
(0.0206548 -0.262304 0)
(0.0140442 -0.21915 0)
(0.00787622 -0.167179 0)
(0.00297161 -0.106561 0)
(0.00047805 -0.0378607 0)
(0.000621693 0.0415078 0)
(0.0039147 0.116466 0)
(0.0104982 0.182317 0)
(0.0189782 0.238434 0)
(0.0283591 0.284562 0)
(0.0378562 0.320764 0)
(0.0467842 0.347383 0)
(0.0546026 0.364994 0)
(0.0609364 0.374339 0)
(0.0655692 0.376258 0)
(0.0684254 0.37164 0)
(0.0695465 0.36137 0)
(0.0690647 0.346294 0)
(0.0671765 0.327198 0)
(0.0641189 0.304789 0)
(0.0601489 0.279691 0)
(0.0555273 0.252445 0)
(0.0505067 0.223512 0)
(0.0453222 0.19328 0)
(0.0401859 0.162075 0)
(0.035283 0.130167 0)
(0.0307708 0.0977843 0)
(0.0267775 0.0651185 0)
(0.0234029 0.0323376 0)
(0.0207188 -0.0004077 0)
(0.0187702 -0.032975 0)
(0.017576 -0.0652232 0)
(0.01713 -0.0970055 0)
(0.0174012 -0.128163 0)
(0.0183346 -0.158517 0)
(0.0198512 -0.187868 0)
(0.0218491 -0.215984 0)
(0.024204 -0.242601 0)
(0.0267706 -0.267414 0)
(0.0293849 -0.290077 0)
(0.031868 -0.310198 0)
(0.0340308 -0.327336 0)
(0.0356821 -0.341004 0)
(0.0366378 -0.350668 0)
(0.0367338 -0.355752 0)
(0.0358411 -0.35565 0)
(0.0338831 -0.34974 0)
(0.0308542 -0.337403 0)
(0.0268376 -0.318053 0)
(0.0220216 -0.291173 0)
(0.0167089 -0.256361 0)
(0.0113098 -0.213378 0)
(0.0063175 -0.162198 0)
(0.00237472 -0.103048 0)
(0.000380121 -0.0364913 0)
(0.000528867 0.0396421 0)
(0.00335576 0.111615 0)
(0.00904709 0.175296 0)
(0.0164448 0.230068 0)
(0.0247246 0.275634 0)
(0.0332295 0.311968 0)
(0.0413727 0.339294 0)
(0.0486763 0.358047 0)
(0.0547924 0.368827 0)
(0.0595012 0.372338 0)
(0.0627004 0.36935 0)
(0.0643894 0.36065 0)
(0.0646487 0.34701 0)
(0.0636204 0.329161 0)
(0.0614877 0.30778 0)
(0.0584584 0.283476 0)
(0.0547496 0.256787 0)
(0.050577 0.228183 0)
(0.0461455 0.19807 0)
(0.0416438 0.166795 0)
(0.0372399 0.134652 0)
(0.033079 0.101896 0)
(0.0292824 0.0687446 0)
(0.025947 0.0353922 0)
(0.0231458 0.00201517 0)
(0.0209282 -0.0312192 0)
(0.0193211 -0.0641456 0)
(0.0183289 -0.0965937 0)
(0.0179347 -0.128381 0)
(0.0181002 -0.159309 0)
(0.018767 -0.189153 0)
(0.0198564 -0.217661 0)
(0.0212706 -0.244549 0)
(0.0228945 -0.269495 0)
(0.0245968 -0.292136 0)
(0.0262343 -0.312071 0)
(0.0276555 -0.328852 0)
(0.0287073 -0.341995 0)
(0.0292431 -0.35098 0)
(0.0291329 -0.355255 0)
(0.0282753 -0.354256 0)
(0.0266114 -0.347415 0)
(0.0241387 -0.334185 0)
(0.0209244 -0.314064 0)
(0.0171168 -0.286633 0)
(0.0129517 -0.251587 0)
(0.0087452 -0.208778 0)
(0.00487459 -0.158251 0)
(0.00182882 -0.100277 0)
(0.000291991 -0.0354149 0)
(0.000443735 0.0380544 0)
(0.0028345 0.107462 0)
(0.0076768 0.169241 0)
(0.0140195 0.222787 0)
(0.0211881 0.267773 0)
(0.0286407 0.304111 0)
(0.035883 0.331935 0)
(0.0425023 0.351575 0)
(0.0481858 0.363514 0)
(0.0527227 0.368351 0)
(0.0559982 0.366753 0)
(0.0579825 0.359423 0)
(0.0587173 0.347064 0)
(0.0582997 0.33036 0)
(0.0568665 0.309952 0)
(0.0545807 0.28643 0)
(0.0516182 0.260327 0)
(0.0481582 0.232117 0)
(0.0443748 0.202214 0)
(0.0404314 0.170981 0)
(0.0364765 0.138733 0)
(0.0326409 0.105742 0)
(0.0290363 0.0722507 0)
(0.0257547 0.0384743 0)
(0.0228683 0.00461099 0)
(0.0204298 -0.0291505 0)
(0.0184725 -0.0626243 0)
(0.0170113 -0.0956195 0)
(0.0160429 -0.127935 0)
(0.0155463 -0.15935 0)
(0.0154835 -0.189625 0)
(0.0157995 -0.218489 0)
(0.0164237 -0.24564 0)
(0.0172704 -0.270742 0)
(0.0182411 -0.293419 0)
(0.0192264 -0.313259 0)
(0.0201099 -0.329811 0)
(0.0207729 -0.342594 0)
(0.0211008 -0.351095 0)
(0.0209908 -0.354786 0)
(0.0203614 -0.35313 0)
(0.0191627 -0.345604 0)
(0.0173866 -0.331715 0)
(0.0150772 -0.311029 0)
(0.0123388 -0.283196 0)
(0.00934013 -0.247985 0)
(0.006309 -0.205316 0)
(0.00351797 -0.155287 0)
(0.00132044 -0.0981992 0)
(0.000210968 -0.0346086 0)
(0.00036435 0.0367273 0)
(0.00234154 0.103972 0)
(0.00636769 0.164122 0)
(0.011677 0.216583 0)
(0.0177287 0.261009 0)
(0.0240848 0.297269 0)
(0.0303391 0.325431 0)
(0.0361439 0.345745 0)
(0.0412274 0.358606 0)
(0.0453962 0.364526 0)
(0.0485334 0.364091 0)
(0.0505912 0.357932 0)
(0.0515821 0.346693 0)
(0.0515667 0.331013 0)
(0.0506424 0.3115 0)
(0.0489317 0.288725 0)
(0.0465722 0.26321 0)
(0.0437077 0.235427 0)
(0.0404815 0.205798 0)
(0.0370307 0.174694 0)
(0.0334826 0.142443 0)
(0.0299516 0.109336 0)
(0.026538 0.0756309 0)
(0.0233268 0.0415601 0)
(0.0203878 0.00733996 0)
(0.017775 -0.0268236 0)
(0.0155275 -0.0607275 0)
(0.0136695 -0.0941646 0)
(0.012211 -0.126917 0)
(0.0111477 -0.15875 0)
(0.0104619 -0.189407 0)
(0.0101225 -0.218602 0)
(0.0100853 -0.246021 0)
(0.0102944 -0.271314 0)
(0.0106825 -0.294094 0)
(0.011173 -0.313941 0)
(0.0116821 -0.3304 0)
(0.0121224 -0.342988 0)
(0.012407 -0.351199 0)
(0.0124555 -0.354517 0)
(0.0122001 -0.352429 0)
(0.0115936 -0.34444 0)
(0.0106168 -0.330098 0)
(0.00928598 -0.309015 0)
(0.00765878 -0.280893 0)
(0.00583782 -0.245554 0)
(0.00396743 -0.202966 0)
(0.00222417 -0.153267 0)
(0.000839089 -0.0967783 0)
(0.000134997 -0.0340557 0)
(0.000289183 0.0356482 0)
(0.0018694 0.101121 0)
(0.00510375 0.159915 0)
(0.00939611 0.211448 0)
(0.0143272 0.255363 0)
(0.019555 0.291498 0)
(0.0247565 0.319876 0)
(0.0296491 0.340686 0)
(0.0340051 0.354262 0)
(0.0376548 0.361045 0)
(0.0404865 0.361558 0)
(0.0424432 0.356374 0)
(0.0435158 0.346089 0)
(0.043736 0.3313 0)
(0.0431669 0.312587 0)
(0.0418951 0.290501 0)
(0.0400223 0.265552 0)
(0.0376588 0.238208 0)
(0.034917 0.208891 0)
(0.0319074 0.17798 0)
(0.0287349 0.145812 0)
(0.025496 0.112687 0)
(0.0222779 0.0788754 0)
(0.0191569 0.0446244 0)
(0.0161984 0.0101627 0)
(0.0134567 -0.0242905 0)
(0.010975 -0.0585191 0)
(0.00878605 -0.0923035 0)
(0.00691192 -0.125413 0)
(0.00536468 -0.157602 0)
(0.0041463 -0.188601 0)
(0.00324892 -0.218113 0)
(0.00265485 -0.245813 0)
(0.00233681 -0.27134 0)
(0.00225826 -0.294299 0)
(0.00237399 -0.31426 0)
(0.00263128 -0.330762 0)
(0.00297155 -0.34332 0)
(0.00333288 -0.351429 0)
(0.00365335 -0.35458 0)
(0.00387519 -0.352268 0)
(0.00394975 -0.34402 0)
(0.00384283 -0.329407 0)
(0.00354 -0.30807 0)
(0.00305123 -0.279745 0)
(0.00241399 -0.244291 0)
(0.00169271 -0.201708 0)
(0.000974219 -0.152161 0)
(0.000376404 -0.0959883 0)
(6.24671e-05 -0.0337445 0)
(0.000216987 0.0348075 0)
(0.00141187 0.0988887 0)
(0.00387145 0.156603 0)
(0.00715834 0.207377 0)
(0.0109662 0.250849 0)
(0.0150427 0.286838 0)
(0.0191448 0.315337 0)
(0.0230545 0.336496 0)
(0.0265899 0.350601 0)
(0.0296092 0.358045 0)
(0.0320119 0.359303 0)
(0.0337372 0.354903 0)
(0.0347611 0.345401 0)
(0.0350915 0.331362 0)
(0.0347622 0.313341 0)
(0.0338272 0.291869 0)
(0.032355 0.267446 0)
(0.0304233 0.240532 0)
(0.0281146 0.211549 0)
(0.0255122 0.180876 0)
(0.0226978 0.148855 0)
(0.0197489 0.115793 0)
(0.016738 0.0819699 0)
(0.0137312 0.0476394 0)
(0.010788 0.01304 0)
(0.00796126 -0.0216004 0)
(0.00529715 -0.0560571 0)
(0.00283542 -0.0901019 0)
(0.000609521 -0.123496 0)
(-0.00135328 -0.155985 0)
(-0.00303191 -0.187292 0)
(-0.00441164 -0.217112 0)
(-0.00548442 -0.24511 0)
(-0.00624926 -0.270918 0)
(-0.0067127 -0.294132 0)
(-0.00688929 -0.314315 0)
(-0.00680179 -0.330999 0)
(-0.00648121 -0.343691 0)
(-0.00596623 -0.351882 0)
(-0.00530217 -0.35506 0)
(-0.00453911 -0.352726 0)
(-0.00372934 -0.344408 0)
(-0.00292415 -0.329688 0)
(-0.00217016 -0.308222 0)
(-0.00150563 -0.279765 0)
(-0.000957351 -0.244193 0)
(-0.000538388 -0.201528 0)
(-0.000247577 -0.151951 0)
(-7.44691e-05 -0.0958117 0)
(-7.92934e-06 -0.0336672 0)
(0.000146692 0.034199 0)
(0.000963534 0.0972634 0)
(0.00265882 0.154175 0)
(0.0049469 0.204367 0)
(0.00762885 0.247478 0)
(0.0105382 0.283318 0)
(0.0135094 0.311864 0)
(0.0163883 0.333242 0)
(0.0190403 0.347708 0)
(0.0213542 0.355623 0)
(0.023244 0.357431 0)
(0.02465 0.353625 0)
(0.0255372 0.344735 0)
(0.0258938 0.331299 0)
(0.0257276 0.313851 0)
(0.025063 0.292908 0)
(0.0239369 0.268955 0)
(0.0223959 0.242448 0)
(0.0204926 0.213802 0)
(0.0182831 0.183397 0)
(0.0158252 0.151575 0)
(0.0131765 0.118646 0)