/*--------------------------------*- C++ -*----------------------------------*\
  =========                 |
  \\      /  F ield         | OpenFOAM: The Open Source CFD Toolbox
   \\    /   O peration     | Website:  https://openfoam.org
    \\  /    A nd           | Version:  7
     \\/     M anipulation  |
\*---------------------------------------------------------------------------*/
FoamFile
{
    version     2.0;
    format      ascii;
    class       volVectorField;
    location    "0.0088";
    object      U;
}
// * * * * * * * * * * * * * * * * * * * * * * * * * * * * * * * * * * * * * //

dimensions      [0 1 -1 0 0 0 0];

internalField   nonuniform List<vector> 
2500
(
(0.29041 -0.152559 0)
(0.389941 -0.128379 0)
(0.565827 -0.0747472 0)
(0.683256 -0.0420889 0)
(0.752031 -0.0242432 0)
(0.795865 -0.0144882 0)
(0.825572 -0.00910028 0)
(0.84639 -0.00602825 0)
(0.86143 -0.00418287 0)
(0.872585 -0.00300901 0)
(0.881021 -0.00222331 0)
(0.887495 -0.00167569 0)
(0.892519 -0.0012822 0)
(0.896455 -0.000993005 0)
(0.899562 -0.000776724 0)
(0.90203 -0.000612568 0)
(0.904001 -0.000486225 0)
(0.90558 -0.000387552 0)
(0.906847 -0.000309219 0)
(0.90786 -0.000245844 0)
(0.908666 -0.000193417 0)
(0.909296 -0.000148907 0)
(0.909775 -0.000109968 0)
(0.91012 -7.47235e-05 0)
(0.910341 -4.16046e-05 0)
(0.910445 -9.214e-06 0)
(0.910432 2.37898e-05 0)
(0.910298 5.88147e-05 0)
(0.910035 9.74229e-05 0)
(0.909627 0.000141475 0)
(0.909053 0.000193284 0)
(0.908283 0.000255815 0)
(0.907274 0.000332947 0)
(0.90597 0.000429851 0)
(0.904297 0.000553507 0)
(0.902155 0.000713494 0)
(0.899409 0.000923217 0)
(0.895877 0.00120198 0)
(0.891311 0.00157865 0)
(0.885367 0.0020987 0)
(0.877551 0.00283832 0)
(0.867138 0.00393404 0)
(0.852998 0.0056468 0)
(0.833283 0.00849974 0)
(0.804884 0.0135557 0)
(0.762468 0.0229103 0)
(0.69503 0.04053 0)
(0.577808 0.0736322 0)
(0.398265 0.128784 0)
(0.294012 0.153919 0)
(0.00123401 -0.295288 0)
(0.0170536 -0.298799 0)
(0.151914 -0.212553 0)
(0.280987 -0.144095 0)
(0.383805 -0.0976829 0)
(0.463867 -0.0672517 0)
(0.525477 -0.0474456 0)
(0.572658 -0.034345 0)
(0.608929 -0.0254271 0)
(0.637012 -0.0191713 0)
(0.658913 -0.0146654 0)
(0.67611 -0.0113492 0)
(0.689696 -0.00886632 0)
(0.700489 -0.00698159 0)
(0.709105 -0.00553434 0)
(0.716013 -0.00441126 0)
(0.721568 -0.00353051 0)
(0.726044 -0.00283184 0)
(0.729651 -0.00227023 0)
(0.732547 -0.00181169 0)
(0.734853 -0.00143018 0)
(0.736663 -0.00110553 0)
(0.738041 -0.000821761 0)
(0.739038 -0.000565843 0)
(0.739684 -0.000326721 0)
(0.739996 -9.44754e-05 0)
(0.739978 0.000140413 0)
(0.739621 0.000387756 0)
(0.7389 0.000658375 0)
(0.737777 0.000964909 0)
(0.736193 0.00132277 0)
(0.734066 0.00175134 0)
(0.731285 0.00227556 0)
(0.727703 0.00292798 0)
(0.723124 0.0037517 0)
(0.71729 0.0048045 0)
(0.709858 0.00616505 0)
(0.700377 0.00794257 0)
(0.688245 0.0102926 0)
(0.672652 0.0134438 0)
(0.652504 0.0177455 0)
(0.626298 0.0237532 0)
(0.591951 0.0323861 0)
(0.546569 0.0452097 0)
(0.486283 0.0648975 0)
(0.406476 0.0957667 0)
(0.302086 0.143938 0)
(0.168634 0.21614 0)
(0.0264791 0.3068 0)
(0.00522104 0.303197 0)
(-0.0328911 -0.250815 0)
(-0.062 -0.343638 0)
(-0.0133919 -0.308596 0)
(0.0662864 -0.247717 0)
(0.150617 -0.190442 0)
(0.228307 -0.144379 0)
(0.29518 -0.109516 0)
(0.350751 -0.0836107 0)
(0.396142 -0.0643573 0)
(0.432918 -0.0499431 0)
(0.462614 -0.039049 0)
(0.486572 -0.0307366 0)
(0.505914 -0.0243383 0)
(0.521549 -0.0193742 0)
(0.53421 -0.0154939 0)
(0.544478 -0.0124379 0)
(0.552815 -0.0100113 0)
(0.559584 -0.00806608 0)
(0.565071 -0.00648897 0)
(0.569498 -0.00519234 0)
(0.573037 -0.00410791 0)
(0.575821 -0.00318177 0)
(0.577947 -0.00237059 0)
(0.579487 -0.00163857 0)
(0.580486 -0.000955018 0)
(0.580972 -0.000292189 0)
(0.580951 0.000376587 0)
(0.580408 0.00107872 0)
(0.579309 0.00184427 0)
(0.577596 0.00270803 0)
(0.575184 0.00371194 0)
(0.571954 0.00490819 0)
(0.567749 0.00636297 0)
(0.562359 0.00816149 0)
(0.55551 0.0104146 0)
(0.546849 0.0132682 0)
(0.535919 0.0169158 0)
(0.522134 0.0216179 0)
(0.504745 0.02773 0)
(0.482795 0.035746 0)
(0.455081 0.0463639 0)
(0.420116 0.0605845 0)
(0.376127 0.0798466 0)
(0.321187 0.106183 0)
(0.253665 0.142271 0)
(0.173471 0.190902 0)
(0.0844174 0.252619 0)
(-0.00209098 0.319556 0)
(-0.0582141 0.359665 0)
(-0.0323199 0.26376 0)
(-0.0268933 -0.190695 0)
(-0.0665368 -0.33121 0)
(-0.0680782 -0.346888 0)
(-0.0347774 -0.311548 0)
(0.0173204 -0.26135 0)
(0.0752498 -0.212268 0)
(0.131519 -0.169915 0)
(0.182541 -0.135253 0)
(0.227038 -0.107544 0)
(0.264953 -0.0856107 0)
(0.296805 -0.0683047 0)
(0.323328 -0.0546476 0)
(0.345296 -0.0438501 0)
(0.363431 -0.035289 0)
(0.378371 -0.0284761 0)
(0.390662 -0.0230293 0)
(0.40076 -0.0186487 0)
(0.409038 -0.0150987 0)
(0.4158 -0.0121938 0)
(0.42129 -0.00978673 0)
(0.4257 -0.00776068 0)
(0.42918 -0.00602154 0)
(0.431843 -0.00449247 0)
(0.433773 -0.00310911 0)
(0.435024 -0.00181559 0)
(0.435628 -0.000561032 0)
(0.43559 0.000703702 0)
(0.434895 0.00202911 0)
(0.433502 0.00347028 0)
(0.431341 0.00509049 0)
(0.428311 0.00696528 0)
(0.424275 0.00918741 0)
(0.41905 0.0118729 0)
(0.412399 0.0151687 0)
(0.40402 0.0192623 0)
(0.393531 0.0243943 0)
(0.380456 0.0308749 0)
(0.364212 0.039106 0)
(0.344092 0.04961 0)
(0.31927 0.0630674 0)
(0.288815 0.0803611 0)
(0.251769 0.102618 0)
(0.207318 0.131211 0)
(0.155163 0.167632 0)
(0.0962273 0.213007 0)
(0.0339158 0.266703 0)
(-0.0239856 0.322982 0)
(-0.0635085 0.364515 0)
(-0.0667062 0.351579 0)
(-0.0276008 0.203706 0)
(-0.0181013 -0.14852 0)
(-0.0548458 -0.298971 0)
(-0.0786137 -0.34668 0)
(-0.0762939 -0.337596 0)
(-0.0531448 -0.30274 0)
(-0.0182398 -0.259767 0)
(0.0214065 -0.217448 0)
(0.061251 -0.179479 0)
(0.0986866 -0.146968 0)
(0.132447 -0.119832 0)
(0.162101 -0.097506 0)
(0.187696 -0.0792883 0)
(0.209524 -0.0644884 0)
(0.227983 -0.0524882 0)
(0.243498 -0.0427578 0)
(0.256477 -0.0348536 0)
(0.267287 -0.0284093 0)
(0.276251 -0.0231251 0)
(0.283642 -0.0187566 0)
(0.289686 -0.015105 0)
(0.294569 -0.0120083 0)
(0.298437 -0.00933357 0)
(0.301403 -0.00697021 0)
(0.303551 -0.00482412 0)
(0.304937 -0.00281252 0)
(0.305592 -0.000859302 0)
(0.305523 0.00110941 0)
(0.30471 0.00316959 0)
(0.30311 0.00540374 0)
(0.300651 0.00790586 0)
(0.297226 0.0107869 0)
(0.292696 0.0141813 0)
(0.286877 0.0182542 0)
(0.279536 0.023211 0)
(0.270385 0.0293075 0)
(0.259075 0.0368627 0)
(0.245188 0.0462736 0)
(0.228247 0.0580311 0)
(0.207725 0.0727365 0)
(0.183083 0.0911123 0)
(0.153849 0.113997 0)
(0.119758 0.142295 0)
(0.0810085 0.176824 0)
(0.0386696 0.217945 0)
(-0.00471113 0.264757 0)
(-0.0443533 0.313495 0)
(-0.0725204 0.354634 0)
(-0.0789055 0.368525 0)
(-0.056866 0.320589 0)
(-0.0190554 0.16017 0)
(-0.0117766 -0.119221 0)
(-0.0424678 -0.263188 0)
(-0.0738981 -0.327576 0)
(-0.0892013 -0.338884 0)
(-0.0870246 -0.320144 0)
(-0.0719954 -0.287178 0)
(-0.0491038 -0.249576 0)
(-0.0224059 -0.21258 0)
(0.00520362 -0.178724 0)
(0.0318806 -0.148985 0)
(0.0565805 -0.123509 0)
(0.0788069 -0.102028 0)
(0.0984129 -0.0841007 0)
(0.11546 -0.0692334 0)
(0.130122 -0.0569457 0)
(0.142624 -0.0467993 0)
(0.153205 -0.0384084 0)
(0.162096 -0.0314421 0)
(0.169505 -0.02562 0)
(0.175616 -0.0207067 0)
(0.180585 -0.0165056 0)
(0.184537 -0.0128514 0)
(0.187574 -0.00960364 0)
(0.18977 -0.0066411 0)
(0.191175 -0.00385539 0)
(0.191817 -0.00114583 0)
(0.191701 0.0015859 0)
(0.190807 0.0044409 0)
(0.189091 0.00752858 0)
(0.186485 0.0109724 0)
(0.18289 0.0149164 0)
(0.178176 0.0195322 0)
(0.172178 0.025027 0)
(0.164695 0.0316523 0)
(0.155486 0.0397135 0)
(0.144276 0.0495785 0)
(0.13076 0.0616862 0)
(0.114626 0.07655 0)
(0.0955865 0.0947532 0)
(0.073445 0.116925 0)
(0.0481975 0.143679 0)
(0.0201943 0.175482 0)
(-0.00962254 0.212394 0)
(-0.0394046 0.253577 0)
(-0.0660581 0.296453 0)
(-0.085041 0.335333 0)
(-0.0905491 0.359492 0)
(-0.0769682 0.35103 0)
(-0.045082 0.284044 0)
(-0.0126358 0.129266 0)
(-0.00787675 -0.0979798 0)
(-0.0329011 -0.229712 0)
(-0.0652662 -0.300659 0)
(-0.0892861 -0.325552 0)
(-0.100573 -0.320379 0)
(-0.100459 -0.297941 0)
(-0.091769 -0.267195 0)
(-0.0774671 -0.233859 0)
(-0.0600879 -0.201273 0)
(-0.0415366 -0.1712 0)
(-0.0231161 -0.144412 0)
(-0.00564446 -0.121096 0)
(0.0104175 -0.101117 0)
(0.0248558 -0.0841746 0)
(0.0376175 -0.0699026 0)
(0.0487472 -0.0579209 0)
(0.0583439 -0.0478678 0)
(0.0665319 -0.0394141 0)
(0.0734411 -0.0322685 0)
(0.0791963 -0.0261777 0)
(0.0839095 -0.0209236 0)
(0.0876766 -0.0163185 0)
(0.0905758 -0.0121993 0)
(0.0926661 -0.00842265 0)
(0.0939879 -0.00485826 0)
(0.0945619 -0.00138386 0)
(0.0943899 0.00212067 0)
(0.0934532 0.00577902 0)
(0.0917127 0.00972433 0)
(0.0891074 0.0141055 0)
(0.0855534 0.0190937 0)
(0.0809433 0.0248895 0)
(0.0751457 0.0317302 0)
(0.0680075 0.0398964 0)
(0.0593579 0.0497185 0)
(0.0490182 0.0615795 0)
(0.0368195 0.0759134 0)
(0.0226321 0.0931945 0)
(0.00641242 0.113909 0)
(-0.0117262 0.1385 0)
(-0.0314109 0.167261 0)
(-0.0518716 0.200159 0)
(-0.0717731 0.236523 0)
(-0.0890468 0.274568 0)
(-0.100814 0.310675 0)
(-0.103571 0.338447 0)
(-0.0938183 0.347682 0)
(-0.0696535 0.323776 0)
(-0.035545 0.248731 0)
(-0.00857861 0.106443 0)
(-0.00555546 -0.0819887 0)
(-0.0260532 -0.200053 0)
(-0.0565976 -0.271473 0)
(-0.084086 -0.304303 0)
(-0.103213 -0.309283 0)
(-0.113315 -0.2962 0)
(-0.115504 -0.272733 0)
(-0.111594 -0.244364 0)
(-0.103489 -0.21471 0)
(-0.0928448 -0.185984 0)
(-0.0809544 -0.15941 0)
(-0.0687538 -0.135561 0)
(-0.0568764 -0.114595 0)
(-0.0457205 -0.0964255 0)
(-0.0355115 -0.0808286 0)
(-0.0263552 -0.0675175 0)
(-0.0182783 -0.0561858 0)
(-0.0112585 -0.0465328 0)
(-0.00524636 -0.0382788 0)
(-0.000180038 -0.0311704 0)
(0.00400445 -0.0249821 0)
(0.00736677 -0.0195145 0)
(0.00995803 -0.0145906 0)
(0.0118181 -0.0100511 0)
(0.012974 -0.00574962 0)
(0.0134389 -0.00154669 0)
(0.0132112 0.00269538 0)
(0.012274 0.00711841 0)
(0.0105949 0.0118743 0)
(0.00812558 0.0171312 0)
(0.00480231 0.0230796 0)
(0.000547084 0.0299385 0)
(-0.00472954 0.037961 0)
(-0.0111232 0.0474382 0)
(-0.0187269 0.0587008 0)
(-0.027616 0.0721153 0)
(-0.0378254 0.0880721 0)
(-0.0493163 0.10696 0)
(-0.0619273 0.129121 0)
(-0.0753104 0.154769 0)
(-0.0888487 0.183863 0)
(-0.101564 0.215914 0)
(-0.112031 0.249687 0)
(-0.118345 0.282799 0)
(-0.118226 0.311207 0)
(-0.109396 0.328657 0)
(-0.0903054 0.326326 0)
(-0.0614239 0.293034 0)
(-0.0285107 0.216784 0)
(-0.00611903 0.0890104 0)
(-0.00413832 -0.0694768 0)
(-0.0211531 -0.174201 0)
(-0.0489579 -0.242716 0)
(-0.0770333 -0.279384 0)
(-0.100193 -0.291323 0)
(-0.116755 -0.285789 0)
(-0.126674 -0.269041 0)
(-0.13081 -0.245963 0)
(-0.130409 -0.22008 0)
(-0.126746 -0.193769 0)
(-0.120943 -0.168522 0)
(-0.113909 -0.145183 0)
(-0.106328 -0.124153 0)
(-0.0986944 -0.105539 0)
(-0.091342 -0.089265 0)
(-0.0844847 -0.0751503 0)
(-0.0782478 -0.0629605 0)
(-0.0726946 -0.0524421 0)
(-0.0678473 -0.0433433 0)
(-0.0637027 -0.0354253 0)
(-0.0602435 -0.0284676 0)
(-0.0574466 -0.0222696 0)
(-0.0552886 -0.0166487 0)
(-0.0537501 -0.011437 0)
(-0.0528178 -0.0064778 0)
(-0.0524869 -0.00162007 0)
(-0.0527617 0.00328623 0)
(-0.0536566 0.00839566 0)
(-0.0551954 0.0138728 0)
(-0.0574114 0.0198978 0)
(-0.0603452 0.0266717 0)
(-0.0640423 0.0344206 0)
(-0.0685477 0.0433997 0)
(-0.0738985 0.0538931 0)
(-0.0801117 0.0662111 0)
(-0.0871678 0.0806789 0)
(-0.0949861 0.0976169 0)
(-0.103393 0.117303 0)
(-0.112079 0.139917 0)
(-0.120552 0.165446 0)
(-0.12808 0.193556 0)
(-0.133651 0.223405 0)
(-0.135958 0.2534 0)
(-0.133455 0.280894 0)
(-0.124568 0.301869 0)
(-0.108109 0.310698 0)
(-0.0839112 0.300175 0)
(-0.0537274 0.262064 0)
(-0.0233494 0.188548 0)
(-0.00459212 0.0752317 0)
(-0.00322509 -0.0593536 0)
(-0.0175476 -0.151725 0)
(-0.0424682 -0.215611 0)
(-0.0696303 -0.253347 0)
(-0.0943844 -0.269644 0)
(-0.114647 -0.269798 0)
(-0.129683 -0.258762 0)
(-0.139658 -0.240696 0)
(-0.145252 -0.218823 0)
(-0.147342 -0.195483 0)
(-0.146813 -0.172269 0)
(-0.144455 -0.15019 0)
(-0.140923 -0.129817 0)
(-0.136731 -0.111415 0)
(-0.132266 -0.0950394 0)
(-0.127805 -0.0806113 0)
(-0.123542 -0.0679746 0)
(-0.119603 -0.0569316 0)
(-0.116068 -0.0472688 0)
(-0.112982 -0.0387723 0)
(-0.110369 -0.0312365 0)
(-0.108239 -0.0244678 0)
(-0.106595 -0.0182858 0)
(-0.105434 -0.0125209 0)
(-0.104759 -0.00701196 0)
(-0.104571 -0.00160211 0)
(-0.104878 0.00386546 0)
(-0.105689 0.00955222 0)
(-0.107019 0.0156291 0)
(-0.108886 0.0222808 0)
(-0.111307 0.0297101 0)
(-0.114296 0.0381405 0)
(-0.117854 0.0478166 0)
(-0.121966 0.059002 0)
(-0.126583 0.0719707 0)
(-0.131607 0.0869917 0)
(-0.136869 0.104301 0)
(-0.142102 0.124061 0)
(-0.146911 0.146294 0)
(-0.150739 0.170793 0)
(-0.152846 0.196998 0)
(-0.152303 0.223842 0)
(-0.14803 0.249561 0)
(-0.138906 0.271496 0)
(-0.124005 0.285935 0)
(-0.102972 0.288074 0)
(-0.0765069 0.272234 0)
(-0.046914 0.232481 0)
(-0.0194633 0.163785 0)
(-0.00359153 0.0640143 0)
(-0.0025989 -0.0509569 0)
(-0.0147995 -0.132143 0)
(-0.0369886 -0.190637 0)
(-0.0625098 -0.227659 0)
(-0.0873609 -0.246341 0)
(-0.109404 -0.250532 0)
(-0.127546 -0.244085 0)
(-0.141495 -0.230443 0)
(-0.151493 -0.212435 0)
(-0.158069 -0.192237 0)
(-0.161857 -0.17143 0)
(-0.163493 -0.151088 0)
(-0.163549 -0.131887 0)
(-0.162511 -0.114202 0)
(-0.160771 -0.0981946 0)
(-0.158635 -0.0838762 0)
(-0.156333 -0.0711636 0)
(-0.154033 -0.0599165 0)
(-0.151855 -0.0499641 0)
(-0.149882 -0.0411233 0)
(-0.14817 -0.0332098 0)
(-0.146754 -0.0260439 0)
(-0.145661 -0.019453 0)
(-0.144905 -0.0132719 0)
(-0.144498 -0.00734049 0)
(-0.14445 -0.00150142 0)
(-0.144766 0.00440349 0)
(-0.145456 0.010537 0)
(-0.146523 0.0170702 0)
(-0.14797 0.0241859 0)
(-0.149793 0.0320809 0)
(-0.151975 0.0409672 0)
(-0.154482 0.05107 0)
(-0.157254 0.0626221 0)
(-0.160191 0.0758527 0)
(-0.163137 0.0909673 0)
(-0.165865 0.108117 0)
(-0.168057 0.127354 0)
(-0.169283 0.148568 0)
(-0.16899 0.171401 0)
(-0.166496 0.195148 0)
(-0.161023 0.218627 0)
(-0.151757 0.240053 0)
(-0.137979 0.256924 0)
(-0.119286 0.265969 0)
(-0.0958973 0.263223 0)
(-0.0689869 0.244314 0)
(-0.0409783 0.205016 0)
(-0.0164392 0.14211 0)
(-0.00289428 0.0546854 0)
(-0.00214447 -0.0438699 0)
(-0.0126363 -0.115026 0)
(-0.0323464 -0.167908 0)
(-0.0559267 -0.203117 0)
(-0.0799978 -0.222759 0)
(-0.102541 -0.229631 0)
(-0.122321 -0.226706 0)
(-0.138769 -0.216784 0)
(-0.15182 -0.202278 0)
(-0.161718 -0.185143 0)
(-0.168876 -0.166864 0)
(-0.173765 -0.148512 0)
(-0.176853 -0.130809 0)
(-0.178566 -0.1142 0)
(-0.179273 -0.0989201 0)
(-0.179277 -0.0850529 0)
(-0.17882 -0.072579 0)
(-0.178092 -0.0614111 0)
(-0.177238 -0.051421 0)
(-0.176365 -0.0424587 0)
(-0.175551 -0.0343644 0)
(-0.174855 -0.0269765 0)
(-0.174316 -0.0201352 0)
(-0.173965 -0.0136836 0)
(-0.17382 -0.00746771 0)
(-0.173896 -0.00133428 0)
(-0.174201 0.00487149 0)
(-0.174737 0.0113086 0)
(-0.175501 0.0181432 0)
(-0.176481 0.02555 0)
(-0.177655 0.0337142 0)
(-0.178981 0.0428299 0)
(-0.180398 0.0530965 0)
(-0.18181 0.0647112 0)
(-0.183081 0.0778545 0)
(-0.184022 0.092669 0)
(-0.184374 0.109227 0)
(-0.183803 0.127488 0)
(-0.181887 0.147239 0)
(-0.178116 0.168023 0)
(-0.171913 0.189054 0)
(-0.162672 0.209131 0)
(-0.149838 0.22655 0)
(-0.133031 0.239058 0)
(-0.112234 0.243865 0)
(-0.0880248 0.237774 0)
(-0.0617844 0.217462 0)
(-0.0358274 0.179935 0)
(-0.0140164 0.123141 0)
(-0.00238105 0.0468152 0)
(-0.00179981 -0.0378135 0)
(-0.010892 -0.100012 0)
(-0.028398 -0.147359 0)
(-0.0499747 -0.18012 0)
(-0.0727904 -0.199723 0)
(-0.0950195 -0.208214 0)
(-0.115411 -0.207878 0)
(-0.133253 -0.200967 0)
(-0.148274 -0.189506 0)
(-0.160508 -0.175199 0)
(-0.170179 -0.159399 0)
(-0.17761 -0.143123 0)
(-0.183159 -0.127095 0)
(-0.18718 -0.111789 0)
(-0.189996 -0.0974901 0)
(-0.191889 -0.0843337 0)
(-0.193097 -0.0723511 0)
(-0.193814 -0.0615007 0)
(-0.194195 -0.0516934 0)
(-0.19436 -0.0428113 0)
(-0.194404 -0.0347205 0)
(-0.194397 -0.0272794 0)
(-0.19439 -0.0203437 0)
(-0.194423 -0.0137687 0)
(-0.194521 -0.00740966 0)
(-0.194702 -0.00112132 0)
(-0.194972 0.00524375 0)
(-0.19533 0.0118368 0)
(-0.195766 0.0188144 0)
(-0.196257 0.0263394 0)
(-0.196763 0.0345805 0)
(-0.197228 0.0437102 0)
(-0.197566 0.0538992 0)
(-0.197662 0.0653068 0)
(-0.197358 0.0780666 0)
(-0.196448 0.0922636 0)
(-0.194667 0.107904 0)
(-0.191691 0.124874 0)
(-0.187133 0.142891 0)
(-0.180556 0.161442 0)
(-0.1715 0.179722 0)
(-0.159531 0.196572 0)
(-0.144319 0.210433 0)
(-0.125748 0.219338 0)
(-0.104065 0.220961 0)
(-0.0800463 0.212762 0)
(-0.0551129 0.192234 0)
(-0.0313666 0.157258 0)
(-0.0120351 0.106529 0)
(-0.00198739 0.0401103 0)
(-0.00153048 -0.0325883 0)
(-0.00946369 -0.0867925 0)
(-0.0250353 -0.128843 0)
(-0.0446778 -0.158819 0)
(-0.0660208 -0.177706 0)
(-0.0874513 -0.187007 0)
(-0.107773 -0.188484 0)
(-0.126215 -0.183936 0)
(-0.142382 -0.175038 0)
(-0.156157 -0.16325 0)
(-0.167617 -0.149773 0)
(-0.176958 -0.135542 0)
(-0.184435 -0.121248 0)
(-0.190325 -0.107371 0)
(-0.1949 -0.0942163 0)
(-0.198407 -0.0819557 0)
(-0.201067 -0.0706572 0)
(-0.203066 -0.0603161 0)
(-0.204559 -0.0508768 0)
(-0.205672 -0.0422509 0)
(-0.206503 -0.0343294 0)
(-0.207132 -0.0269913 0)
(-0.207616 -0.0201095 0)
(-0.208001 -0.0135532 0)
(-0.208314 -0.00718974 0)
(-0.208576 -0.000884494 0)
(-0.208792 0.0054996 0)
(-0.208957 0.0121028 0)
(-0.209055 0.0190692 0)
(-0.209053 0.0265466 0)
(-0.208902 0.0346849 0)
(-0.208532 0.0436327 0)
(-0.207845 0.0535315 0)
(-0.206715 0.0645045 0)
(-0.204974 0.0766423 0)
(-0.202417 0.0899813 0)
(-0.198789 0.104475 0)
(-0.193795 0.11996 0)
(-0.187099 0.136112 0)
(-0.178348 0.152401 0)
(-0.1672 0.168043 0)
(-0.153374 0.181964 0)
(-0.136723 0.19278 0)
(-0.117324 0.198813 0)
(-0.0955905 0.198155 0)
(-0.0723847 0.188805 0)
(-0.0490756 0.168879 0)
(-0.0275175 0.136874 0)
(-0.0103957 0.0919589 0)
(-0.00167729 0.0343561 0)
(-0.00131627 -0.0280427 0)
(-0.00828533 -0.0751034 0)
(-0.0221775 -0.112166 0)
(-0.0400274 -0.139215 0)
(-0.0598449 -0.156939 0)
(-0.0802212 -0.166455 0)
(-0.100048 -0.16912 0)
(-0.11855 -0.166367 0)
(-0.135262 -0.159574 0)
(-0.149968 -0.149972 0)
(-0.162635 -0.138606 0)
(-0.173353 -0.126313 0)
(-0.18229 -0.113734 0)
(-0.189649 -0.101331 0)
(-0.195647 -0.089413 0)
(-0.200495 -0.07817 0)
(-0.204386 -0.0676952 0)
(-0.207491 -0.0580113 0)
(-0.209957 -0.0490903 0)
(-0.211906 -0.0408693 0)
(-0.21344 -0.033262 0)
(-0.214638 -0.0261674 0)
(-0.215561 -0.0194757 0)
(-0.216257 -0.0130712 0)
(-0.216755 -0.00683481 0)
(-0.217075 -0.000644444 0)
(-0.217222 0.00562453 0)
(-0.217187 0.0120994 0)
(-0.216949 0.0189096 0)
(-0.216469 0.0261863 0)
(-0.215692 0.0340594 0)
(-0.214541 0.0426539 0)
(-0.212911 0.0520829 0)
(-0.210673 0.0624372 0)
(-0.207663 0.0737709 0)
(-0.203685 0.0860818 0)
(-0.198508 0.0992862 0)
(-0.191874 0.113189 0)
(-0.183508 0.127451 0)
(-0.17314 0.141551 0)
(-0.160536 0.154758 0)
(-0.145545 0.166105 0)
(-0.12816 0.174391 0)
(-0.108589 0.178209 0)
(-0.0873408 0.17601 0)
(-0.0652932 0.16623 0)
(-0.0437149 0.14745 0)
(-0.0242168 0.118599 0)
(-0.00903359 0.0791499 0)
(-0.00142944 0.0293855 0)
(-0.00114448 -0.0240558 0)
(-0.00731176 -0.0647138 0)
(-0.0197611 -0.0971222 0)
(-0.0359974 -0.121222 0)
(-0.0543392 -0.137501 0)
(-0.0735613 -0.146796 0)
(-0.0926551 -0.150158 0)
(-0.11087 -0.148727 0)
(-0.127712 -0.143626 0)
(-0.142901 -0.135883 0)
(-0.156325 -0.126394 0)
(-0.167994 -0.115893 0)
(-0.177998 -0.104957 0)
(-0.186479 -0.0940177 0)
(-0.193601 -0.0833742 0)
(-0.199534 -0.0732206 0)
(-0.204442 -0.0636645 0)
(-0.208477 -0.0547477 0)
(-0.211774 -0.0464632 0)
(-0.214446 -0.0387692 0)
(-0.216589 -0.0315993 0)
(-0.218284 -0.0248712 0)
(-0.219589 -0.0184916 0)
(-0.220552 -0.0123602 0)
(-0.221204 -0.00637204 0)
(-0.221561 -0.000418755 0)
(-0.221628 0.00561072 0)
(-0.221394 0.0118294 0)
(-0.220833 0.0183514 0)
(-0.219905 0.0252903 0)
(-0.21855 0.0327565 0)
(-0.216687 0.0408522 0)
(-0.214214 0.0496651 0)
(-0.211004 0.0592582 0)
(-0.206902 0.0696563 0)
(-0.201731 0.0808287 0)
(-0.195289 0.0926681 0)
(-0.187363 0.104966 0)
(-0.177737 0.117385 0)
(-0.166218 0.129436 0)
(-0.152666 0.140454 0)
(-0.137032 0.149593 0)
(-0.119413 0.155828 0)
(-0.100102 0.157994 0)
(-0.0796515 0.154847 0)
(-0.0589126 0.145163 0)
(-0.0390358 0.127876 0)
(-0.0214103 0.102215 0)
(-0.00790356 0.0678471 0)
(-0.00123025 0.0250625 0)
(-0.00100648 -0.0205284 0)
(-0.00650989 -0.05542 0)
(-0.0177338 -0.0835023 0)
(-0.0325509 -0.1047 0)
(-0.0495281 -0.119365 0)
(-0.0675991 -0.12813 0)
(-0.0858533 -0.131812 0)
(-0.103581 -0.131314 0)
(-0.120282 -0.127547 0)
(-0.135641 -0.121363 0)
(-0.149491 -0.113517 0)
(-0.16178 -0.104644 0)
(-0.172538 -0.0952527 0)
(-0.181852 -0.0857316 0)
(-0.189838 -0.0763617 0)
(-0.19663 -0.0673315 0)
(-0.202362 -0.0587537 0)
(-0.207163 -0.0506819 0)
(-0.211152 -0.0431241 0)
(-0.214433 -0.036055 0)
(-0.217096 -0.0294253 0)
(-0.219213 -0.0231688 0)
(-0.220843 -0.017208 0)
(-0.222031 -0.0114576 0)
(-0.222805 -0.00582667 0)
(-0.223183 -0.000220891 0)
(-0.223165 0.00545675 0)
(-0.222739 0.0113046 0)
(-0.221879 0.0174212 0)
(-0.220541 0.0239031 0)
(-0.218665 0.0308417 0)
(-0.216172 0.038319 0)
(-0.212963 0.0464006 0)
(-0.20892 0.0551267 0)
(-0.203902 0.0645003 0)
(-0.197754 0.0744718 0)
(-0.190307 0.0849218 0)
(-0.18139 0.0956412 0)
(-0.170846 0.106311 0)
(-0.158549 0.116485 0)
(-0.144434 0.125576 0)
(-0.128533 0.132855 0)
(-0.111014 0.137463 0)
(-0.0922225 0.138446 0)
(-0.0727185 0.134808 0)
(-0.0533068 0.1256 0)
(-0.0350181 0.110012 0)
(-0.0190491 0.0874898 0)
(-0.00697129 0.0578197 0)
(-0.00107026 0.0212732 0)
(-0.00089598 -0.0173768 0)
(-0.00585384 -0.0470422 0)
(-0.01605 -0.0711029 0)
(-0.0296446 -0.0894842 0)
(-0.0454026 -0.102444 0)
(-0.0623911 -0.110463 0)
(-0.0797899 -0.114176 0)
(-0.0969355 -0.114299 0)
(-0.113337 -0.111567 0)
(-0.128661 -0.106677 0)
(-0.142703 -0.100258 0)
(-0.155366 -0.0928486 0)
(-0.166635 -0.0848884 0)
(-0.176549 -0.0767205 0)
(-0.185186 -0.0685988 0)
(-0.192643 -0.0606993 0)
(-0.199028 -0.0531331 0)
(-0.204447 -0.0459589 0)
(-0.209004 -0.0391945 0)
(-0.212788 -0.0328271 0)
(-0.215882 -0.0268211 0)
(-0.218352 -0.0211246 0)
(-0.220253 -0.0156743 0)
(-0.221625 -0.0103986 0)
(-0.222496 -0.00522071 0)
(-0.22288 -5.98605e-05 0)
(-0.222777 0.00516693 0)
(-0.222174 0.0105436 0)
(-0.221042 0.0161534 0)
(-0.219339 0.0220767 0)
(-0.217007 0.0283881 0)
(-0.213968 0.0351513 0)
(-0.210132 0.0424138 0)
(-0.205391 0.0501983 0)
(-0.199622 0.0584925 0)
(-0.192692 0.0672363 0)
(-0.184465 0.0763081 0)
(-0.174812 0.0855086 0)
(-0.163624 0.0945466 0)
(-0.150832 0.103027 0)
(-0.136434 0.110441 0)
(-0.120519 0.116175 0)
(-0.103305 0.119518 0)
(-0.0851608 0.119695 0)
(-0.066639 0.115919 0)
(-0.048487 0.10745 0)
(-0.0316248 0.093676 0)
(-0.0170866 0.074191 0)
(-0.00620887 0.0488599 0)
(-0.000942443 0.0179207 0)
(-0.000808136 -0.0145305 0)
(-0.00532249 -0.0394209 0)
(-0.014669 -0.0597327 0)
(-0.0272317 -0.075399 0)
(-0.0419318 -0.0866107 0)
(-0.0579463 -0.0937354 0)
(-0.0745338 -0.0972657 0)
(-0.0910772 -0.0977661 0)
(-0.107102 -0.095822 0)
(-0.122267 -0.0919992 0)
(-0.136347 -0.0868136 0)
(-0.149212 -0.0807137 0)
(-0.16081 -0.0740718 0)
(-0.171144 -0.0671829 0)
(-0.180258 -0.0602699 0)
(-0.188221 -0.0534913 0)
(-0.195113 -0.0469509 0)
(-0.201022 -0.0407075 0)
(-0.206033 -0.0347845 0)
(-0.210226 -0.0291777 0)
(-0.213672 -0.0238624 0)
(-0.216431 -0.0187987 0)
(-0.218552 -0.0139357 0)
(-0.220073 -0.00921486 0)
(-0.221017 -0.00457225 0)
(-0.221398 5.96272e-05 0)
(-0.221214 0.0047503 0)
(-0.220451 0.00956984 0)
(-0.21908 0.0145872 0)
(-0.217061 0.0198679 0)
(-0.214337 0.0254712 0)
(-0.210838 0.0314458 0)
(-0.20648 0.0378246 0)
(-0.201168 0.0446176 0)
(-0.194795 0.0518031 0)
(-0.187254 0.0593176 0)
(-0.178437 0.0670446 0)
(-0.16825 0.0748024 0)
(-0.156629 0.0823336 0)
(-0.143551 0.0892972 0)
(-0.12906 0.0952649 0)
(-0.113289 0.0997265 0)
(-0.0964831 0.102103 0)
(-0.0790238 0.101776 0)
(-0.0614427 0.0981237 0)
(-0.0444301 0.0905742 0)
(-0.0288085 0.0786645 0)
(-0.015479 0.0620961 0)
(-0.00559264 0.0407819 0)
(-0.000841226 0.0149221 0)
(-0.000739121 -0.011929 0)
(-0.00489822 -0.0324159 0)
(-0.0135548 -0.0492143 0)
(-0.0252655 -0.0622688 0)
(-0.0390737 -0.071722 0)
(-0.0542444 -0.0778535 0)
(-0.0701029 -0.081043 0)
(-0.0860745 -0.0817304 0)
(-0.101704 -0.0803769 0)
(-0.11665 -0.077433 0)
(-0.130674 -0.0733145 0)
(-0.143624 -0.068387 0)
(-0.155421 -0.0629575 0)
(-0.16604 -0.0572731 0)
(-0.175497 -0.0515234 0)
(-0.183835 -0.0458458 0)
(-0.191114 -0.0403328 0)
(-0.197403 -0.0350397 0)
(-0.202772 -0.0299914 0)
(-0.207289 -0.0251896 0)
(-0.211016 -0.0206175 0)
(-0.214005 -0.0162453 0)
(-0.216303 -0.0120329 0)
(-0.21794 -0.00793363 0)
(-0.21894 -0.00389546 0)
(-0.219312 0.000136653 0)
(-0.219054 0.00421951 0)
(-0.218151 0.00841017 0)
(-0.216577 0.0127643 0)
(-0.214291 0.0173342 0)
(-0.21124 0.0221657 0)
(-0.207362 0.0272952 0)
(-0.202579 0.0327444 0)
(-0.19681 0.0385147 0)
(-0.189964 0.0445803 0)
(-0.181955 0.0508797 0)
(-0.172702 0.057307 0)
(-0.162142 0.0637035 0)
(-0.150244 0.0698492 0)
(-0.137024 0.0754587 0)
(-0.122559 0.0801794 0)
(-0.107013 0.0835976 0)
(-0.0906484 0.0852509 0)
(-0.0738466 0.0846513 0)
(-0.0571155 0.0813157 0)
(-0.0410924 0.074806 0)
(-0.0265176 0.0647729 0)
(-0.014185 0.0509967 0)
(-0.00510221 0.0334205 0)
(-0.000762106 0.0122067 0)
(-0.000685882 -0.00952088 0)
(-0.00456639 -0.025903 0)
(-0.0126758 -0.0393853 0)
(-0.023702 -0.0499242 0)
(-0.0367816 -0.0576257 0)
(-0.051249 -0.0626996 0)
(-0.0664837 -0.0654338 0)
(-0.0819474 -0.0661641 0)
(-0.0972037 -0.0652459 0)
(-0.111916 -0.0630292 0)
(-0.125837 -0.0598399 0)
(-0.138801 -0.0559672 0)
(-0.150708 -0.0516566 0)
(-0.161513 -0.0471078 0)
(-0.171209 -0.0424758 0)
(-0.17982 -0.0378749 0)
(-0.187387 -0.0333837 0)
(-0.193964 -0.0290506 0)
(-0.199607 -0.0248995 0)
(-0.204375 -0.020935 0)
(-0.208321 -0.0171466 0)
(-0.211491 -0.0135122 0)
(-0.213925 -0.0100015 0)
(-0.215652 -0.00657799 0)
(-0.216692 -0.00320085 0)
(-0.217052 0.00017342 0)
(-0.216729 0.00358976 0)
(-0.21571 0.00709317 0)
(-0.213967 0.0107272 0)
(-0.211463 0.0145323 0)
(-0.208149 0.0185431 0)
(-0.203967 0.0227857 0)
(-0.198849 0.0272738 0)
(-0.192723 0.0320039 0)
(-0.185516 0.0369499 0)
(-0.177158 0.0420566 0)
(-0.167591 0.0472331 0)
(-0.156778 0.0523465 0)
(-0.144714 0.0572166 0)
(-0.131443 0.0616127 0)
(-0.11707 0.065254 0)
(-0.101776 0.0678147 0)
(-0.0858339 0.0689352 0)
(-0.0696202 0.0682396 0)
(-0.0536187 0.0653605 0)
(-0.0384209 0.0599677 0)
(-0.0247003 0.0518015 0)
(-0.0131673 0.0407015 0)
(-0.00472013 0.0266302 0)
(-0.000701422 0.00971391 0)
(-0.000646008 -0.00726143 0)
(-0.00431499 -0.0197729 0)
(-0.0120053 -0.030098 0)
(-0.0225016 -0.0382046 0)
(-0.0350103 -0.0441695 0)
(-0.0489181 -0.0481453 0)
(-0.0636468 -0.0503428 0)
(-0.0786877 -0.0510093 0)
(-0.0936211 -0.050408 0)
(-0.108115 -0.0487998 0)
(-0.12192 -0.0464295 0)
(-0.13486 -0.0435158 0)
(-0.146822 -0.0402457 0)
(-0.157743 -0.0367726 0)
(-0.167601 -0.033217 0)
(-0.176404 -0.0296684 0)
(-0.184179 -0.0261896 0)
(-0.190967 -0.0228202 0)
(-0.196814 -0.0195808 0)
(-0.20177 -0.016477 0)
(-0.20588 -0.0135024 0)
(-0.209186 -0.0106415 0)
(-0.211723 -0.0078721 0)
(-0.213517 -0.00516708 0)
(-0.214584 -0.00249581 0)
(-0.214933 0.000174551 0)
(-0.214557 0.0028779 0)
(-0.213444 0.00564812 0)
(-0.211568 0.00851779 0)
(-0.208893 0.0115167 0)
(-0.205374 0.0146701 0)
(-0.200958 0.0179959 0)
(-0.195585 0.0215023 0)
(-0.189192 0.0251837 0)
(-0.181718 0.0290168 0)
(-0.173109 0.0329558 0)
(-0.163323 0.0369276 0)
(-0.152344 0.0408276 0)
(-0.140188 0.0445156 0)
(-0.12692 0.0478146 0)
(-0.112661 0.0505112 0)
(-0.0976064 0.0523602 0)
(-0.0820338 0.0530932 0)
(-0.0663115 0.0524325 0)
(-0.0509025 0.0501081 0)
(-0.0363612 0.0458801 0)
(-0.0233091 0.039561 0)
(-0.0123936 0.0310367 0)
(-0.00443188 0.0202823 0)
(-0.000656237 0.00739159 0)
(-0.00061765 -0.0051119 0)
(-0.00413459 -0.0139279 0)
(-0.0115215 -0.0212175 0)
(-0.0216314 -0.0269589 0)
(-0.0337197 -0.0312042 0)
(-0.047211 -0.0340575 0)
(-0.0615578 -0.0356624 0)
(-0.0762738 -0.0361887 0)
(-0.0909525 -0.0358176 0)
(-0.105267 -0.0347295 0)
(-0.118967 -0.0330947 0)
(-0.13187 -0.0310658 0)
(-0.143852 -0.0287744 0)
(-0.154842 -0.0263289 0)
(-0.164805 -0.0238151 0)
(-0.173737 -0.0212973 0)
(-0.181655 -0.0188211 0)
(-0.18859 -0.0164157 0)
(-0.194582 -0.0140969 0)
(-0.19967 -0.0118698 0)
(-0.203898 -0.0097307 0)
(-0.207301 -0.00766949 0)
(-0.209911 -0.00567107 0)
(-0.211752 -0.00371671 0)
(-0.212838 -0.00178516 0)
(-0.213176 0.000146436 0)
(-0.21276 0.00210172 0)
(-0.211577 0.00410424 0)
(-0.209602 0.00617654 0)
(-0.206801 0.00833906 0)
(-0.203133 0.0106087 0)
(-0.198547 0.0129972 0)
(-0.19299 0.015509 0)
(-0.186408 0.0181386 0)
(-0.178747 0.0208677 0)
(-0.169965 0.0236623 0)
(-0.160034 0.0264691 0)
(-0.148952 0.0292126 0)
(-0.136751 0.031793 0)
(-0.123507 0.0340852 0)
(-0.109357 0.0359398 0)
(-0.0945026 0.0371858 0)
(-0.0792225 0.0376379 0)
(-0.0638787 0.0371049 0)
(-0.048917 0.0354026 0)
(-0.0348641 0.0323677 0)
(-0.0223034 0.0278736 0)
(-0.0118373 0.021844 0)
(-0.00422583 0.0142629 0)
(-0.000624275 0.00519471 0)
(-0.000599469 -0.0030378 0)
(-0.00401816 -0.00827987 0)
(-0.0112081 -0.0126197 0)
(-0.0210658 -0.0160447 0)
(-0.0328779 -0.0185853 0)
(-0.0460935 -0.0203019 0)
(-0.0601851 -0.0212783 0)
(-0.0746814 -0.0216135 0)
(-0.089185 -0.0214136 0)
(-0.103373 -0.0207846 0)
(-0.116995 -0.0198266 0)
(-0.129864 -0.0186301 0)
(-0.141852 -0.0172731 0)
(-0.152879 -0.01582 0)
(-0.162904 -0.0143223 0)
(-0.171915 -0.0128187 0)
(-0.179922 -0.0113367 0)
(-0.18695 -0.00989421 0)
(-0.193033 -0.00850123 0)
(-0.198207 -0.00716111 0)
(-0.202509 -0.00587209 0)
(-0.205975 -0.00462844 0)
(-0.208632 -0.00342141 0)
(-0.210502 -0.00224004 0)
(-0.2116 -0.00107184 0)
(-0.21193 9.66798e-05 0)
(-0.211487 0.00127945 0)
(-0.210257 0.00249033 0)
(-0.208217 0.00374255 0)
(-0.205334 0.00504803 0)
(-0.201567 0.00641649 0)
(-0.196872 0.00785448 0)
(-0.191197 0.00936409 0)
(-0.184493 0.0109415 0)
(-0.176714 0.0125751 0)
(-0.167825 0.0142439 0)
(-0.157806 0.0159155 0)
(-0.146665 0.0175445 0)
(-0.134444 0.0190711 0)
(-0.121228 0.0204209 0)
(-0.107161 0.0215053 0)
(-0.0924481 0.0222236 0)
(-0.0773698 0.022467 0)
(-0.0622822 0.0221237 0)
(-0.0476194 0.0210864 0)
(-0.0338895 0.0192603 0)
(-0.0216512 0.0165723 0)
(-0.0114778 0.0129784 0)
(-0.00409327 0.00846967 0)
(-0.000603869 0.0030836 0)
(-0.000590594 -0.00100775 0)
(-0.0039611 -0.00274724 0)