/*--------------------------------*- C++ -*----------------------------------*\
  =========                 |
  \\      /  F ield         | OpenFOAM: The Open Source CFD Toolbox
   \\    /   O peration     | Website:  https://openfoam.org
    \\  /    A nd           | Version:  7
     \\/     M anipulation  |
\*---------------------------------------------------------------------------*/
FoamFile
{
    version     2.0;
    format      ascii;
    class       surfaceScalarField;
    location    "0.05";
    object      phi;
}
// * * * * * * * * * * * * * * * * * * * * * * * * * * * * * * * * * * * * * //

dimensions      [0 3 -1 0 0 0 0];

internalField   nonuniform List<scalar> 
4900
(
5.4547e-06
-5.45469e-06
9.95326e-06
-4.49856e-06
1.26941e-05
-2.74079e-06
1.44122e-05
-1.7182e-06
1.55283e-05
-1.11608e-06
1.62813e-05
-7.52955e-07
1.68121e-05
-5.30813e-07
1.72023e-05
-3.90232e-07
1.74992e-05
-2.96892e-07
1.77311e-05
-2.31853e-07
1.79157e-05
-1.84585e-07
1.80647e-05
-1.49022e-07
1.81862e-05
-1.21515e-07
1.8286e-05
-9.97626e-08
1.83682e-05
-8.22499e-08
1.84361e-05
-6.79372e-08
1.84922e-05
-5.60839e-08
1.85384e-05
-4.61455e-08
1.85761e-05
-3.77087e-08
1.86065e-05
-3.04518e-08
1.86307e-05
-2.41171e-08
1.86491e-05
-1.84926e-08
1.86625e-05
-1.33987e-08
1.86712e-05
-8.67867e-09
1.86754e-05
-4.19162e-09
1.86752e-05
1.98965e-10
1.86706e-05
4.61241e-09
1.86614e-05
9.18795e-09
1.86474e-05
1.40588e-08
1.8628e-05
1.93758e-08
1.86027e-05
2.53104e-08
1.85706e-05
3.20649e-08
1.85307e-05
3.98862e-08
1.84816e-05
4.90846e-08
1.84216e-05
6.00616e-08
1.83482e-05
7.33506e-08
1.82585e-05
8.96815e-08
1.81485e-05
1.10083e-07
1.80124e-05
1.36054e-07
1.78425e-05
1.6987e-07
1.76274e-05
2.15132e-07
1.73496e-05
2.77832e-07
1.69811e-05
3.68432e-07
1.64751e-05
5.06014e-07
1.57492e-05
7.2595e-07
1.46574e-05
1.09179e-06
1.29451e-05
1.71227e-06
1.0162e-05
2.78312e-06
5.55727e-06
4.60473e-06
5.55727e-06
-1.19228e-07
-5.33547e-06
1.8319e-06
-6.44969e-06
4.41338e-06
-5.32226e-06
6.72936e-06
-4.03418e-06
8.6095e-06
-2.99623e-06
1.00923e-05
-2.23571e-06
1.12573e-05
-1.69588e-06
1.21788e-05
-1.31172e-06
1.29152e-05
-1.03328e-06
1.35101e-05
-8.26709e-07
1.39953e-05
-6.69808e-07
1.43943e-05
-5.48013e-07
1.47244e-05
-4.51639e-07
1.49987e-05
-3.74105e-07
1.52273e-05
-3.10827e-07
1.54179e-05
-2.58524e-07
1.55766e-05
-2.14789e-07
1.57083e-05
-1.77805e-07
1.58167e-05
-1.46171e-07
1.59051e-05
-1.18778e-07
1.59757e-05
-9.47229e-08
1.60304e-05
-7.32569e-08
1.60708e-05
-5.37375e-08
1.60977e-05
-3.55994e-08
1.61118e-05
-1.83281e-08
1.61135e-05
-1.44086e-09
1.61025e-05
1.55355e-08
1.60787e-05
3.30782e-08
1.6041e-05
5.16907e-08
1.59885e-05
7.19233e-08
1.59194e-05
9.43996e-08
1.58316e-05
1.1985e-07
1.57223e-05
1.49159e-07
1.5588e-05
1.83422e-07
1.5424e-05
2.24041e-07
1.52245e-05
2.72846e-07
1.49819e-05
3.32291e-07
1.46862e-05
4.05746e-07
1.43243e-05
4.97949e-07
1.38785e-05
6.15744e-07
1.33243e-05
7.69266e-07
1.26283e-05
9.7387e-07
1.17435e-05
1.25322e-06
1.06056e-05
1.64393e-06
9.13047e-06
2.20108e-06
7.22365e-06
2.99861e-06
4.83113e-06
4.10478e-06
2.12087e-06
5.49338e-06
1.07118e-08
6.71489e-06
5.56798e-06
-1.0824e-06
-4.25306e-06
-7.54088e-07
-6.77801e-06
5.89386e-07
-6.66574e-06
2.30148e-06
-5.74627e-06
4.01247e-06
-4.70722e-06
5.56372e-06
-3.78696e-06
6.90802e-06
-3.04018e-06
8.04895e-06
-2.45265e-06
9.00906e-06
-1.9934e-06
9.81513e-06
-1.63277e-06
1.04922e-05
-1.34686e-06
1.10617e-05
-1.11757e-06
1.15416e-05
-9.31512e-07
1.19463e-05
-7.78833e-07
1.22877e-05
-6.52222e-07
1.25754e-05
-5.46187e-07
1.28171e-05
-4.5653e-07
1.30193e-05
-3.79988e-07
1.31871e-05
-3.13972e-07
1.33247e-05
-2.56385e-07
1.34355e-05
-2.05494e-07
1.35221e-05
-1.59832e-07
1.35865e-05
-1.18122e-07
1.36301e-05
-7.92307e-08
1.36539e-05
-4.21135e-08
1.36582e-05
-5.78374e-09
1.3643e-05
3.07298e-08
1.36077e-05
6.84076e-08
1.35511e-05
1.08284e-07
1.34715e-05
1.51483e-07
1.33667e-05
1.9927e-07
1.32334e-05
2.53113e-07
1.30678e-05
3.14763e-07
1.28649e-05
3.86364e-07
1.26183e-05
4.70597e-07
1.23203e-05
5.70894e-07
1.19608e-05
6.91725e-07
1.15276e-05
8.39019e-07
1.10047e-05
1.02076e-06
1.03727e-05
1.24783e-06
9.60673e-06
1.5352e-06
8.67725e-06
1.90335e-06
7.55065e-06
2.37983e-06
6.19502e-06
2.99955e-06
4.59565e-06
3.80045e-06
2.79017e-06
4.80409e-06
9.37284e-07
5.95767e-06
-5.70947e-07
7.00161e-06
-1.03822e-06
7.18216e-06
4.52977e-06
-9.13054e-07
-3.34001e-06
-1.34165e-06
-6.34941e-06
-9.37122e-07
-7.07026e-06
2.06592e-08
-6.70406e-06
1.23789e-06
-5.92444e-06
2.5151e-06
-5.06418e-06
3.73954e-06
-4.26462e-06
4.8585e-06
-3.57161e-06
5.85418e-06
-2.98907e-06
6.72672e-06
-2.50532e-06
7.48458e-06
-2.10472e-06
8.13925e-06
-1.77224e-06
8.70275e-06
-1.49501e-06
9.18637e-06
-1.26246e-06
9.60027e-06
-1.06612e-06
9.9533e-06
-8.99219e-07
1.02531e-05
-7.56307e-07
1.05061e-05
-6.32975e-07
1.07177e-05
-5.25602e-07
1.08925e-05
-4.31169e-07
1.10341e-05
-3.47117e-07
1.11455e-05
-2.71233e-07
1.12289e-05
-2.01562e-07
1.1286e-05
-1.36332e-07
1.13178e-05
-7.38993e-08
1.13247e-05
-1.26915e-08
1.13066e-05
4.88422e-08
1.12628e-05
1.12275e-07
1.11918e-05
1.79259e-07
1.10917e-05
2.51583e-07
1.09597e-05
3.31238e-07
1.07923e-05
4.20508e-07
1.0585e-05
5.22069e-07
1.03322e-05
6.39132e-07
1.00272e-05
7.75623e-07
9.6617e-06
9.36414e-07
9.22579e-06
1.12763e-06
8.70776e-06
1.35705e-06
8.09394e-06
1.63457e-06
7.36901e-06
1.97276e-06
6.51691e-06
2.3873e-06
5.5233e-06
2.89696e-06
4.38095e-06
3.52218e-06
3.10035e-06
4.28014e-06
1.72906e-06
5.17175e-06
3.81876e-07
6.15127e-06
-7.25481e-07
7.06503e-06
-1.26613e-06
7.54226e-06
-9.15971e-07
6.832e-06
3.61379e-06
-6.64833e-07
-2.67518e-06
-1.29749e-06
-5.71675e-06
-1.41871e-06
-6.94905e-06
-1.04365e-06
-7.07912e-06
-3.26781e-07
-6.64131e-06
5.74355e-07
-5.96531e-06
1.54154e-06
-5.2318e-06
2.49891e-06
-4.52898e-06
3.40329e-06
-3.89345e-06
4.23331e-06
-3.33534e-06
4.98099e-06
-2.8524e-06
5.646e-06
-2.43726e-06
6.23213e-06
-2.08114e-06
6.74508e-06
-1.77541e-06
7.19124e-06
-1.51228e-06
7.577e-06
-1.28497e-06
7.90835e-06
-1.08766e-06
8.19074e-06
-9.15366e-07
8.42897e-06
-7.63826e-07
8.62716e-06
-6.29355e-07
8.78877e-06
-5.08729e-07
8.91662e-06
-3.99089e-07
9.01291e-06
-2.97851e-07
9.07922e-06
-2.02635e-07
9.11651e-06
-1.11198e-07
9.1252e-06
-2.1376e-08
9.10506e-06
6.89781e-08
9.05529e-06
1.62048e-07
8.97443e-06
2.60119e-07
8.86037e-06
3.65646e-07
8.71027e-06
4.81335e-07
8.52054e-06
6.10235e-07
8.28676e-06
7.55852e-07
8.0036e-06
9.22291e-07
7.66481e-06
1.11441e-06
7.26317e-06
1.33805e-06
6.79061e-06
1.60019e-06
6.23843e-06
1.90924e-06
5.59787e-06
2.27513e-06
4.86136e-06
2.70927e-06
4.02468e-06
3.22398e-06
3.09092e-06
3.83072e-06
2.07704e-06
4.53606e-06
1.02403e-06
5.33316e-06
1.05678e-08
6.18521e-06
-8.34203e-07
6.99604e-06
-1.3304e-06
7.56122e-06
-1.29342e-06
7.50528e-06
-6.85083e-07
6.22366e-06
2.92871e-06
-4.70877e-07
-2.2043e-06
-1.10006e-06
-5.08757e-06
-1.46887e-06
-6.58024e-06
-1.47067e-06
-7.07731e-06
-1.15122e-06
-6.96076e-06
-6.05465e-07
-6.51107e-06
7.29594e-08
-5.91023e-06
8.10229e-07
-5.26625e-06
1.55475e-06
-4.63797e-06
2.27349e-06
-4.05409e-06
2.9471e-06
-3.526e-06
3.56557e-06
-3.05573e-06
4.12493e-06
-2.6405e-06
4.62499e-06
-2.27546e-06
5.0677e-06
-1.95499e-06
5.45619e-06
-1.67347e-06
5.7941e-06
-1.42556e-06
6.08513e-06
-1.2064e-06
6.33285e-06
-1.01154e-06
6.54049e-06
-8.36998e-07
6.71089e-06
-6.79124e-07
6.84639e-06
-5.34597e-07
6.94888e-06
-4.00334e-07
7.01968e-06
-2.7344e-07
7.05962e-06
-1.51141e-07
7.06898e-06
-3.07309e-08
7.04747e-06
9.04882e-08
6.99425e-06
2.15267e-07
6.9079e-06
3.46471e-07
6.78639e-06
4.87156e-07
6.62708e-06
6.40638e-07
6.42673e-06
8.1059e-07
6.18145e-06
1.00113e-06
5.88679e-06
1.21695e-06
5.53781e-06
1.46339e-06
5.12928e-06
1.74658e-06
4.65603e-06
2.07344e-06
4.11357e-06
2.4517e-06
3.49915e-06
2.88955e-06
2.81346e-06
3.39497e-06
2.0633e-06
3.97413e-06
1.26558e-06
4.62843e-06
4.52754e-07
5.34889e-06
-3.20668e-07
6.10658e-06
-9.72554e-07
6.8371e-06
-1.39408e-06
7.41757e-06
-1.47019e-06
7.63733e-06
-1.13649e-06
7.17158e-06
-4.96654e-07
5.58382e-06
2.43206e-06
-3.39948e-07
-1.86435e-06
-9.02308e-07
-4.52521e-06
-1.36483e-06
-6.11771e-06
-1.58608e-06
-6.85607e-06
-1.54757e-06
-6.99927e-06
-1.2913e-06
-6.76734e-06
-8.78557e-07
-6.32297e-06
-3.68374e-07
-5.77643e-06
1.91025e-07
-5.19737e-06
7.6384e-07
-4.6269e-06
1.3253e-06
-4.08747e-06
1.85935e-06
-3.58977e-06
2.35634e-06
-3.13749e-06
2.81114e-06
-2.73027e-06
3.22167e-06
-2.36552e-06
3.5878e-06
-2.0396e-06
3.9106e-06
-1.74837e-06
4.19182e-06
-1.48761e-06
4.43346e-06
-1.25319e-06
4.63762e-06
-1.04115e-06
4.80621e-06
-8.47718e-07
4.94093e-06
-6.69319e-07
5.04314e-06
-5.02547e-07
5.11383e-06
-3.44124e-07
5.15355e-06
-1.9086e-07
5.16242e-06
-3.96032e-08
5.1401e-06
1.12806e-07
5.08578e-06
2.69591e-07
4.99815e-06
4.34098e-07
4.87545e-06
6.09853e-07
4.71547e-06
8.00627e-07
4.51555e-06
1.01051e-06
4.27273e-06
1.24395e-06
3.98385e-06
1.50584e-06
3.64574e-06
1.80151e-06
3.25561e-06
2.1367e-06
2.81159e-06
2.51746e-06
2.31358e-06
2.94972e-06
1.76443e-06
3.43869e-06
1.17182e-06
3.98758e-06
5.50574e-07
4.59538e-06
-7.42224e-08
5.25323e-06
-6.6394e-07
5.93861e-06
-1.16395e-06
6.60659e-06
-1.50457e-06
7.17772e-06
-1.61033e-06
7.52333e-06
-1.42505e-06
7.45205e-06
-9.60118e-07
6.70665e-06
-3.66674e-07
4.99038e-06
2.06538e-06
-2.5505e-07
-1.6093e-06
-7.41411e-07
-4.03885e-06
-1.22225e-06
-5.63688e-06
-1.56081e-06
-6.5175e-06
-1.70804e-06
-6.85205e-06
-1.66978e-06
-6.8056e-06
-1.47865e-06
-6.51411e-06
-1.17545e-06
-6.07963e-06
-7.99122e-07
-5.57369e-06
-3.82342e-07
-5.04368e-06
4.95455e-08
-4.51935e-06
4.78e-07
-4.01822e-06
8.90139e-07
-3.54963e-06
1.27749e-06
-3.11762e-06
1.63486e-06
-2.72289e-06
1.95939e-06
-2.36413e-06
2.24985e-06
-2.03883e-06
2.50607e-06
-1.74383e-06
2.72852e-06
-1.47565e-06
2.91803e-06
-1.23066e-06
3.07555e-06
-1.00523e-06
3.20199e-06
-7.95763e-07
3.29814e-06
-5.98694e-07
3.36454e-06
-4.10523e-07
3.40145e-06
-2.27778e-07
3.40884e-06
-4.69902e-08
3.3863e-06
1.35343e-07
3.3331e-06
3.22793e-07
3.24815e-06
5.19046e-07
3.13007e-06
7.27941e-07
2.97718e-06
9.53514e-07
2.78766e-06
1.20002e-06
2.55964e-06
1.47197e-06
2.29141e-06
1.77406e-06
1.98175e-06
2.11117e-06
1.63035e-06
2.48811e-06
1.23846e-06
2.90935e-06
8.09759e-07
3.37842e-06
3.5156e-07
3.89689e-06
-1.2372e-07
4.46286e-06
-5.96782e-07
5.06844e-06
-1.03969e-06
5.69614e-06
-1.41471e-06
6.31364e-06
-1.67509e-06
6.86696e-06
-1.76978e-06
7.2724e-06
-1.65536e-06
7.40892e-06
-1.3185e-06
7.11519e-06
-8.09712e-07
6.19786e-06
-2.81256e-07
4.46192e-06
1.78413e-06
-1.99479e-07
-1.40982e-06
-6.18616e-07
-3.61971e-06
-1.085e-06
-5.1705e-06
-1.48028e-06
-6.12222e-06
-1.74495e-06
-6.58737e-06
-1.8635e-06
-6.68705e-06
-1.84714e-06
-6.53046e-06
-1.72006e-06
-6.20672e-06
-1.5102e-06
-5.78355e-06
-1.24415e-06
-5.30973e-06
-9.44697e-07
-4.81881e-06
-6.30107e-07
-4.33281e-06
-3.14332e-07
-3.86541e-06
-7.57593e-09
-3.42437e-06
2.82997e-07
-3.01346e-06
5.52575e-07
-2.63371e-06
7.98113e-07
-2.28437e-06
1.01783e-06
-1.96355e-06
1.21083e-06
-1.66864e-06
1.37676e-06
-1.3966e-06
1.51564e-06
-1.14411e-06
1.62762e-06
-9.07743e-07
1.71288e-06
-6.83955e-07
1.77154e-06
-4.69176e-07
1.80355e-06
-2.59795e-07
1.80872e-06
-5.21604e-08
1.78663e-06
1.57435e-07
1.73665e-06
3.72771e-07
1.65798e-06
5.97719e-07
1.54966e-06
8.36262e-07
1.41068e-06
1.0925e-06
1.24007e-06
1.37063e-06
1.03712e-06
1.67492e-06
8.01587e-07
2.0096e-06
5.34057e-07
2.3787e-06
2.36424e-07
2.78574e-06
-8.74978e-08
3.23327e-06
-4.31183e-07
3.7221e-06
-7.8445e-07
4.25016e-06
-1.13241e-06
4.81082e-06
-1.45447e-06
5.39051e-06
-1.72383e-06
5.96549e-06
-1.90795e-06
6.49776e-06
-1.97125e-06
6.93027e-06
-1.8813e-06
7.18245e-06
-1.62013e-06
7.14775e-06
-1.20134e-06
6.69641e-06
-6.91017e-07
5.68753e-06
-2.24577e-07
3.99548e-06
1.55955e-06
-1.62137e-07
-1.24769e-06
-5.26687e-07
-3.25516e-06
-9.66943e-07
-4.73024e-06
-1.38504e-06
-5.70413e-06
-1.72143e-06
-6.25097e-06
-1.94966e-06
-6.45882e-06
-2.06663e-06
-6.41349e-06
-2.0833e-06
-6.19005e-06
-2.01737e-06
-5.84948e-06
-1.88844e-06
-5.43866e-06
-1.71512e-06
-4.99212e-06
-1.51368e-06
-4.53426e-06
-1.29749e-06
-4.08159e-06
-1.07714e-06
-3.64472e-06
-8.60707e-07
-3.2299e-06
-6.54139e-07
-2.84027e-06
-4.61714e-07
-2.47679e-06
-2.86403e-07
-2.13886e-06
-1.30201e-07
-1.82484e-06
5.58909e-09
-1.53239e-06
1.20146e-07
-1.25867e-06
2.12944e-07
-1.00054e-06
2.83628e-07
-7.54639e-07
3.31908e-07
-5.17456e-07
3.57492e-07
-2.85379e-07
3.60038e-07
-5.47069e-08
3.39138e-07
1.78335e-07
2.94318e-07
4.17591e-07
2.25069e-07
6.66968e-07
1.30907e-07
9.30424e-07
1.14682e-08
1.21194e-06
-1.3335e-07
1.51545e-06
-3.03198e-07
1.84477e-06
-4.9701e-07
2.20341e-06
-7.12663e-07
2.59435e-06
-9.46538e-07
3.01962e-06
-1.19299e-06
3.47973e-06
-1.44376e-06
3.97286e-06
-1.68727e-06
4.49367e-06
-1.90815e-06
5.03169e-06
-2.08689e-06
5.56924e-06
-2.20025e-06
6.07885e-06
-2.22281e-06
6.52032e-06
-2.13047e-06
6.83792e-06
-1.90654e-06
6.95851e-06
-1.551e-06
6.79221e-06
-1.09235e-06
6.23775e-06
-5.99179e-07
5.19436e-06
-1.8576e-07
3.58207e-06
1.37379e-06
-1.363e-07
-1.11139e-06
-4.57986e-07
-2.93348e-06
-8.70134e-07
-4.31809e-06
-1.29309e-06
-5.28117e-06
-1.67188e-06
-5.87218e-06
-1.97554e-06
-6.15516e-06
-2.19222e-06
-6.19681e-06
-2.32327e-06
-6.05901e-06
-2.37786e-06
-5.79488e-06
-2.36894e-06
-5.44758e-06
-2.31048e-06
-5.05059e-06
-2.21578e-06
-4.62895e-06
-2.09667e-06
-4.20071e-06
-1.96309e-06
-3.7783e-06
-1.82315e-06
-3.36984e-06
-1.68324e-06
-2.98018e-06
-1.5483e-06
-2.61173e-06
-1.42205e-06
-2.26511e-06
-1.30725e-06
-1.93964e-06
-1.20592e-06
-1.63372e-06
-1.11953e-06
-1.34506e-06
-1.04916e-06
-1.07092e-06
-9.95591e-07
-8.08205e-07
-9.59454e-07
-5.53593e-07
-9.41251e-07
-3.03582e-07
-9.41412e-07
-5.4546e-08
-9.6031e-07
1.97233e-07
-9.98251e-07
4.55532e-07
-1.05544e-06
7.24154e-07
-1.1319e-06
1.00688e-06
-1.22739e-06
1.30743e-06
-1.34126e-06
1.62931e-06
-1.47224e-06
1.97574e-06
-1.6182e-06
2.34937e-06
-1.77587e-06
2.75203e-06
-1.94047e-06
3.18421e-06
-2.1053e-06
3.64455e-06
-2.26133e-06
4.1289e-06
-2.39692e-06
4.62926e-06
-2.49763e-06
5.13241e-06
-2.54653e-06
5.61814e-06
-2.52514e-06
6.05746e-06
-2.41548e-06
6.41066e-06
-2.2036e-06
6.62604e-06
-1.88486e-06
6.63977e-06
-1.47086e-06
6.37822e-06
-9.96942e-07
5.76383e-06
-5.27909e-07
4.72533e-06
-1.58162e-07
3.21232e-06
1.21563e-06
-1.17933e-07
-9.93453e-07
-4.06373e-07
-2.64504e-06
-7.92487e-07
-3.93198e-06
-1.21146e-06
-4.8622e-06
-1.61435e-06
-5.46929e-06
-1.96939e-06
-5.80012e-06
-2.25985e-06
-5.90635e-06
-2.48052e-06
-5.83834e-06
-2.63396e-06
-5.64144e-06
-2.72743e-06
-5.35411e-06
-2.77039e-06
-5.00763e-06
-2.77293e-06
-4.62641e-06
-2.74473e-06
-4.22891e-06
-2.6945e-06
-3.82853e-06
-2.62973e-06
-3.4346e-06
-2.55671e-06
-3.0532e-06
-2.48053e-06
-2.68791e-06
-2.40525e-06
-2.34038e-06
-2.33408e-06
-2.01081e-06
-2.26951e-06
-1.69829e-06
-2.21344e-06
-1.40113e-06
-2.16735e-06
-1.11701e-06
-2.13236e-06
-8.43195e-07
-2.10933e-06
-5.76623e-07
-2.09891e-06
-3.14001e-07
-2.10158e-06
-5.1877e-08
-2.11765e-06
2.133e-07
-2.14724e-06
4.85127e-07
-2.19028e-06
7.6719e-07
-2.24638e-06
1.06299e-06
-2.31478e-06
1.37583e-06
-2.3942e-06
1.70873e-06
-2.48266e-06
2.0642e-06
-2.57729e-06
2.444e-06
-2.67407e-06
2.8488e-06
-2.76759e-06
3.27773e-06
-2.85077e-06
3.72774e-06
-2.91472e-06
4.19285e-06
-2.94861e-06
4.66316e-06
-2.93992e-06
5.12371e-06
-2.87503e-06
5.55325e-06
-2.74049e-06
5.92292e-06
-2.52516e-06
6.19533e-06
-2.22333e-06
6.32422e-06
-1.83899e-06
6.25542e-06
-1.39055e-06
5.92978e-06
-9.15348e-07
5.28863e-06
-4.71913e-07
4.28189e-06
-1.37812e-07
2.87822e-06
1.07782e-06
-1.04577e-07
-8.88876e-07
-3.67311e-07
-2.3823e-06
-7.30855e-07
-3.56844e-06
-1.14201e-06
-4.45105e-06
-1.55787e-06
-5.05343e-06
-1.94775e-06
-5.41024e-06
-2.29255e-06
-5.56155e-06
-2.58282e-06
-5.54808e-06
-2.8163e-06
-5.40796e-06
-2.99559e-06
-5.17482e-06
-3.12622e-06
-4.877e-06
-3.21511e-06
-4.53751e-06
-3.26965e-06
-4.17438e-06
-3.29695e-06
-3.80124e-06
-3.30352e-06
-3.42803e-06
-3.29508e-06
-3.06163e-06
-3.27654e-06
-2.70646e-06
-3.25196e-06
-2.36496e-06
-3.2247e-06
-2.03807e-06
-3.19746e-06
-1.72553e-06
-3.17242e-06
-1.42617e-06
-3.15129e-06
-1.13815e-06
-3.13538e-06
-8.591e-07
-3.12572e-06
-5.86287e-07
-3.12303e-06
-3.16692e-07
-3.12779e-06
-4.71175e-08
-3.14023e-06
2.25738e-07
-3.1603e-06
5.05205e-07
-3.18768e-06
7.94562e-07
-3.22163e-06
1.09694e-06
-3.26098e-06
1.41519e-06
-3.30399e-06
1.75175e-06
-3.3482e-06
2.10841e-06
-3.39028e-06
2.48608e-06
-3.42586e-06
2.88439e-06
-3.44939e-06
3.30126e-06
-3.454e-06
3.73235e-06
-3.43151e-06
4.17036e-06
-3.37256e-06
4.6042e-06
-3.26701e-06
5.01817e-06
-3.1048e-06
5.39104e-06
-2.87724e-06
5.69536e-06
-2.57897e-06
5.89706e-06
-2.21062e-06
5.95587e-06
-1.78192e-06
5.82673e-06
-1.31486e-06
5.46272e-06
-8.46071e-07
4.81984e-06
-4.27243e-07
3.86307e-06
-1.22319e-07
2.57329e-06
9.55497e-07
-9.46883e-08
-7.94187e-07
-3.37528e-07
-2.13946e-06
-6.82168e-07
-3.2238e-06
-1.08435e-06
-4.04887e-06
-1.50656e-06
-4.63121e-06
-1.92003e-06
-4.99678e-06
-2.30482e-06
-5.17675e-06
-2.64893e-06
-5.20397e-06
-2.94667e-06
-5.11022e-06
-3.19706e-06
-4.92443e-06
-3.40228e-06
-4.67178e-06
-3.56645e-06
-4.37335e-06
-3.69466e-06
-4.04616e-06
-3.79235e-06
-3.70355e-06
-3.8648e-06
-3.35557e-06
-3.91695e-06
-3.00948e-06
-3.95321e-06
-2.67021e-06
-3.9774e-06
-2.34077e-06
-3.99279e-06
-2.02268e-06
-4.00212e-06
-1.7162e-06
-4.00763e-06
-1.42066e-06
-4.01112e-06
-1.13465e-06
-4.01403e-06
-8.56194e-07
-4.01742e-06
-5.82901e-07
-4.02203e-06
-3.12075e-07
-4.02832e-06
-4.08279e-08
-4.03642e-06
2.33834e-07
-4.04613e-06
5.14913e-07
-4.05689e-06
8.05322e-07
-4.06772e-06
1.10777e-06
-4.07716e-06
1.42463e-06
-4.08317e-06
1.75775e-06
-4.08301e-06
2.10825e-06
-4.07319e-06
2.47626e-06
-4.04932e-06
2.86052e-06
-4.0061e-06
3.25804e-06
-3.93728e-06
3.66354e-06
-3.83582e-06
4.0689e-06
-3.69415e-06
4.46253e-06
-3.50471e-06
4.82873e-06
-3.26085e-06
5.14718e-06
-2.95805e-06
5.39256e-06
-2.59565e-06
5.53466e-06
-2.17887e-06
5.5391e-06
-1.72108e-06
5.36893e-06
-1.24568e-06
4.98732e-06
-7.87268e-07
4.36143e-06
-3.91074e-07
3.46687e-06
-1.10206e-07
2.29243e-06
8.45291e-07
-8.72651e-08
-7.06922e-07
-3.14674e-07
-1.91205e-06
-6.4379e-07
-2.89468e-06
-1.03718e-06
-3.65548e-06
-1.46192e-06
-4.20647e-06
-1.89138e-06
-4.56732e-06
-2.30569e-06
-4.76244e-06
-2.69139e-06
-4.81828e-06
-3.04046e-06
-4.76114e-06
-3.34923e-06
-4.61566e-06
-3.6172e-06
-4.40382e-06
-3.84602e-06
-4.14452e-06
-4.03874e-06
-3.85344e-06
-4.1991e-06
-3.5432e-06
-4.33111e-06
-3.22356e-06
-4.43877e-06
-2.90183e-06
-4.52582e-06
-2.58315e-06
-4.59568e-06
-2.27092e-06
-4.65135e-06
-1.96701e-06
-4.69543e-06
-1.67212e-06
-4.73009e-06
-1.38599e-06
-4.75713e-06
-1.10761e-06
-4.77797e-06
-8.35362e-07
-4.79365e-06
-5.67219e-07
-4.8049e-06
-3.00828e-07
-4.81209e-06
-3.36361e-08
-4.81526e-06
2.37003e-07
-4.81407e-06
5.13729e-07
-4.80781e-06
7.99062e-07
-4.79532e-06
1.09528e-06
-4.77494e-06
1.40426e-06
-4.7445e-06
1.72731e-06
-4.70119e-06
2.06495e-06
-4.64158e-06
2.41664e-06
-4.56153e-06
2.78047e-06
-4.45627e-06
3.15278e-06
-4.32046e-06
3.52773e-06
-4.14842e-06
3.89686e-06
-3.9345e-06
4.24861e-06
-3.67367e-06
4.5679e-06
-3.36234e-06
4.83586e-06
-2.99953e-06
5.02974e-06
-2.58817e-06
5.1233e-06
-2.13673e-06
5.08766e-06
-1.66065e-06
4.89285e-06
-1.1835e-06
4.51017e-06
-7.3725e-07
3.91518e-06
-3.61411e-07
3.09103e-06
-1.00537e-07
2.03155e-06
7.44754e-07
-8.16356e-08
-6.25287e-07
-2.97049e-07
-1.69664e-06
-6.13573e-07
-2.57816e-06
-9.98983e-07
-3.27007e-06
-1.42414e-06
-3.78131e-06
-1.86447e-06
-4.12698e-06
-2.30065e-06
-4.32626e-06
-2.71849e-06
-4.40044e-06
-3.10845e-06
-4.37119e-06
-3.46485e-06
-4.25925e-06
-3.78509e-06
-4.08357e-06
-4.06881e-06
-3.8608e-06
-4.31719e-06
-3.60506e-06
-4.53244e-06
-3.32795e-06
-4.71732e-06
-3.03868e-06
-4.87482e-06
-2.74432e-06
-5.00796e-06
-2.45001e-06
-5.11962e-06
-2.15926e-06
-5.21241e-06
-1.87421e-06
-5.28869e-06
-1.59584e-06
-5.35046e-06
-1.32422e-06
-5.39939e-06
-1.05867e-06
-5.43683e-06
-7.97928e-07
-5.46375e-06
-5.403e-07
-5.48079e-06
-2.83781e-07
-5.48826e-06
-2.61686e-08
-5.48608e-06
2.34825e-07
-5.47382e-06
5.01465e-07
-5.45063e-06
7.75874e-07
-5.41526e-06
1.0599e-06
-5.36598e-06
1.35498e-06
-5.30059e-06
1.66192e-06
-5.21639e-06
1.98075e-06
-5.11017e-06
2.31042e-06
-4.97826e-06
2.64856e-06
-4.8166e-06
2.99111e-06
-4.6209e-06
3.33203e-06
-4.38696e-06
3.66291e-06
-4.111e-06
3.97265e-06
-3.7903e-06
4.24721e-06
-3.42397e-06
4.46953e-06
-3.01385e-06
4.61961e-06
-2.56559e-06
4.67505e-06
-2.08983e-06
4.61189e-06
-1.60304e-06
4.40607e-06
-1.12821e-06
4.03533e-06
-6.94619e-07
3.48159e-06
-3.36847e-07
2.73326e-06
-9.26985e-08
1.7874e-06
6.52055e-07
-7.73359e-08
-5.47951e-07
-2.8341e-07
-1.49056e-06
-5.89811e-07
-2.27175e-06
-9.68288e-07
-2.89159e-06
-1.39275e-06
-3.35685e-06
-1.84053e-06
-3.67921e-06
-2.29299e-06
-3.8738e-06
-2.7357e-06
-3.95774e-06
-3.15812e-06
-3.94876e-06
-3.55317e-06
-3.86419e-06
-3.91662e-06
-3.72013e-06
-4.24642e-06
-3.531e-06
-4.54223e-06
-3.30925e-06
-4.80486e-06
-3.06532e-06
-5.03589e-06
-2.80765e-06
-5.23736e-06
-2.54285e-06
-5.41152e-06
-2.27585e-06
-5.56065e-06
-2.01014e-06
-5.68693e-06
-1.74793e-06
-5.79237e-06
-1.4904e-06
-5.87875e-06
-1.23785e-06
-5.94755e-06
-9.89867e-07
-5.99997e-06
-7.45506e-07
-6.03689e-06
-5.03387e-07
-6.05883e-06
-2.61836e-07
-6.06601e-06
-1.89939e-08
-6.05825e-06
2.27071e-07
-6.03504e-06
4.78257e-07
-5.99547e-06
7.36303e-07
-5.93824e-06
1.00267e-06
-5.86163e-06
1.27837e-06
-5.76355e-06
1.56384e-06
-5.64149e-06
1.85869e-06
-5.49263e-06
2.16156e-06
-5.31384e-06
2.46978e-06
-5.10191e-06
2.77918e-06
-4.85366e-06
3.08378e-06
-4.56631e-06
3.37556e-06
-4.23787e-06
3.6442e-06
-3.86766e-06
3.87701e-06
-3.45702e-06
4.05888e-06
-3.01002e-06
4.17261e-06
-2.53432e-06
4.19934e-06
-2.04189e-06
4.11946e-06
-1.54962e-06
3.9138e-06
-1.07951e-06
3.56522e-06
-6.58279e-07
3.06036e-06
-3.16383e-07
2.39137e-06
-8.62789e-08
1.5573e-06
5.65777e-07
-7.40389e-08
-4.73912e-07
-2.72844e-07
-1.29176e-06
-5.71169e-07
-1.97343e-06
-9.43797e-07
-2.51896e-06
-1.36708e-06
-2.93356e-06
-1.81997e-06
-3.22632e-06
-2.28461e-06
-3.40916e-06
-2.74655e-06
-3.49579e-06
-3.19469e-06
-3.50063e-06
-3.62091e-06
-3.43797e-06
-4.01975e-06
-3.3213e-06
-4.38785e-06
-3.1629e-06
-4.72356e-06
-2.97354e-06
-5.0265e-06
-2.76238e-06
-5.2972e-06
-2.53696e-06
-5.53678e-06
-2.30326e-06
-5.74677e-06
-2.06587e-06
-5.92883e-06
-1.82807e-06
-6.0847e-06
-1.59207e-06
-6.21599e-06
-1.3591e-06
-6.32422e-06
-1.12962e-06
-6.41063e-06
-9.03449e-07
-6.47627e-06
-6.79874e-07
-6.52184e-06
-4.57809e-07
-6.54779e-06
-2.35889e-07
-6.55421e-06
-1.25797e-08
-6.54085e-06
2.13712e-07
-6.50713e-06
4.44538e-07
-6.45211e-06
6.81286e-07
-6.37451e-06
9.25063e-07
-6.27269e-06
1.17655e-06
-6.14473e-06
1.43587e-06
-5.98841e-06
1.70238e-06
-5.80134e-06
1.97449e-06
-5.58105e-06
2.24949e-06
-5.32516e-06
2.52328e-06
-5.03159e-06
2.79022e-06
-4.69892e-06
3.04289e-06
-4.32673e-06
3.27201e-06
-3.9161e-06
3.46638e-06
-3.47018e-06
3.61296e-06
-2.99476e-06
3.6972e-06
-2.49892e-06
3.7035e-06
-1.99544e-06
3.61598e-06
-1.50119e-06
3.41955e-06
-1.03703e-06
3.10106e-06
-6.27391e-07
2.65072e-06
-2.99305e-07
2.06328e-06
-8.09953e-08
1.33899e-06
4.84781e-07
-7.15096e-08
-4.02402e-07
-2.64673e-07
-1.0986e-06
-5.56608e-07
-1.68149e-06
-9.24415e-07
-2.15116e-06
-1.34638e-06
-2.5116e-06
-1.8028e-06
-2.76989e-06
-2.27657e-06
-2.9354e-06
-2.75337e-06
-3.01899e-06
-3.22176e-06
-3.03225e-06
-3.67293e-06
-2.98679e-06
-4.10048e-06
-2.89375e-06
-4.50001e-06
-2.76336e-06
-4.86883e-06
-2.60472e-06
-5.20554e-06
-2.42567e-06
-5.50975e-06
-2.23275e-06
-5.78178e-06
-2.03123e-06
-6.02246e-06
-1.82519e-06
-6.2329e-06
-1.61764e-06
-6.41434e-06
-1.41063e-06
-6.56806e-06
-1.20538e-06
-6.69524e-06
-1.00245e-06
-6.79692e-06
-8.01773e-07
-6.87392e-06
-6.02873e-07
-6.92682e-06
-4.04905e-07
-6.95593e-06
-2.0678e-07
-6.96125e-06
-7.26469e-09
-6.94246e-06
1.94923e-07
-6.89894e-06
4.01018e-07
-6.82975e-06
6.12097e-07
-6.73366e-06
8.28972e-07
-6.60916e-06
1.05206e-06
-6.45454e-06
1.28125e-06
-6.26793e-06
1.51576e-06
-6.0474e-06
1.75396e-06
-5.79112e-06
1.99321e-06
-5.49753e-06
2.2297e-06
-5.1656e-06
2.45829e-06
-4.79511e-06
2.67239e-06
-4.387e-06
2.8639e-06
-3.94381e-06
3.02319e-06
-3.47015e-06
3.1393e-06
-2.97311e-06
3.20016e-06
-2.46272e-06
3.1931e-06
-1.95222e-06
3.10549e-06
-1.45821e-06
2.92554e-06
-1.00044e-06
2.64329e-06
-6.01327e-07
2.25161e-06
-2.85105e-07
1.74706e-06
-7.66513e-08
1.13054e-06
4.0813e-07
-6.95777e-08
-3.32825e-07
-2.58392e-07
-9.09782e-07
-5.45328e-07
-1.39456e-06
-9.09245e-07
-1.78724e-06
-1.32993e-06
-2.09091e-06
-1.78881e-06
-2.31102e-06
-2.2694e-06
-2.4548e-06
-2.75762e-06
-2.53077e-06
-3.24183e-06
-2.54804e-06
-3.71274e-06
-2.51588e-06
-4.16327e-06
-2.44323e-06
-4.58822e-06
-2.33841e-06
-4.98405e-06
-2.20889e-06
-5.34853e-06
-2.06119e-06
-5.68049e-06
-1.90078e-06
-5.97957e-06
-1.73215e-06
-6.24598e-06
-1.55879e-06
-6.48029e-06
-1.38332e-06
-6.68334e-06
-1.20758e-06
-6.85603e-06
-1.0327e-06
-6.99925e-06
-8.59222e-07
-7.11381e-06
-6.87213e-07
-7.20034e-06
-5.16338e-07
-7.25928e-06
-3.45966e-07
-7.29081e-06
-1.75257e-07
-7.29483e-06
-3.24444e-09
-7.27098e-06
1.71073e-07
-7.21861e-06
3.48649e-07
-7.13681e-06
5.30295e-07
-7.02441e-06
7.1658e-07
-6.88008e-06
9.07725e-07
-6.70231e-06
1.10349e-06
-6.48959e-06
1.30304e-06
-6.24046e-06
1.50483e-06
-5.95371e-06
1.70645e-06
-5.62853e-06
1.90452e-06
-5.2648e-06
2.09456e-06
-4.86334e-06
2.27094e-06
-4.42626e-06
2.42682e-06
-3.95729e-06
2.55421e-06
-3.46214e-06
2.64415e-06
-2.94887e-06
2.68689e-06
-2.42816e-06
2.6724e-06
-1.91347e-06
2.5908e-06
-1.421e-06
2.43307e-06
-9.69471e-07
2.19176e-06
-5.79621e-07
1.86176e-06
-2.73419e-07
1.44086e-06
-7.31083e-08
9.30225e-07
3.35022e-07
-6.8119e-08
-2.64706e-07
-2.53626e-07
-7.24275e-07
-5.36716e-07
-1.11147e-06
-8.97572e-07
-1.42638e-06
-1.31714e-06
-1.67135e-06
-1.77772e-06
-1.85044e-06
-2.26338e-06
-1.96914e-06
-2.76026e-06
-2.03389e-06
-3.25663e-06
-2.05167e-06
-3.74289e-06
-2.02962e-06
-4.21145e-06
-1.97467e-06
-4.65651e-06
-1.89334e-06
-5.07387e-06
-1.79153e-06
-5.46064e-06
-1.67442e-06
-5.81501e-06
-1.54641e-06
-6.13603e-06
-1.41112e-06
-6.4234e-06
-1.27142e-06
-6.67724e-06
-1.12947e-06
-6.898e-06
-9.86817e-07
-7.08627e-06
-8.44433e-07
-7.24267e-06
-7.02824e-07
-7.36778e-06
-5.62099e-07
-7.46207e-06
-4.22045e-07
-7.52583e-06
-2.82207e-07
-7.55913e-06
-1.41958e-07
-7.56181e-06
-5.69761e-10
-7.53344e-06
1.4271e-07
-7.47339e-06
2.88593e-07
-7.38076e-06
4.37664e-07
-7.25448e-06
5.90307e-07
-7.09337e-06
7.4661e-07
-6.89616e-06
9.06279e-07
-6.66165e-06
1.06853e-06
-6.38882e-06
1.232e-06
-6.077e-06
1.39463e-06
-5.72607e-06
1.55358e-06
-5.33667e-06
1.70516e-06
-4.9105e-06
1.84477e-06
-4.4506e-06
1.96691e-06
-3.96162e-06
2.06523e-06
-3.45014e-06
2.13267e-06
-2.92493e-06
2.16168e-06
-2.39707e-06
2.14454e-06
-1.88007e-06
2.0738e-06
-1.38975e-06
1.94274e-06
-9.43917e-07
1.74593e-06
-5.61934e-07
1.47977e-06
-2.63984e-07
1.14291e-06
-7.02688e-08
7.36509e-07
2.64753e-07
-6.70435e-08
-1.97662e-07
-2.50099e-07
-5.4122e-07
-5.30314e-07
-8.31253e-07
-8.88841e-07
-1.06786e-06
-1.30749e-06
-1.2527e-06
-1.76923e-06
-1.3887e-06
-2.25858e-06
-1.47979e-06
-2.76187e-06
-1.5306e-06
-3.26734e-06
-1.5462e-06
-3.76519e-06
-1.53177e-06
-4.24747e-06
-1.49239e-06
-4.70793e-06
-1.43288e-06
-5.14187e-06
-1.35759e-06
-5.54589e-06
-1.2704e-06
-5.91769e-06
-1.17461e-06
-6.25585e-06
-1.07296e-06
-6.55965e-06
-9.67625e-07
-6.82885e-06
-8.60275e-07
-7.06356e-06
-7.52104e-07
-7.26411e-06
-6.43888e-07
-7.43089e-06
-5.36043e-07
-7.5643e-06
-4.28687e-07
-7.66465e-06
-3.21692e-07
-7.73211e-06
-2.14746e-07
-7.76666e-06
-1.07407e-07
-7.76808e-06
8.43578e-10
-7.73591e-06
1.10539e-07
-7.6695e-06
2.22181e-07
-7.568e-06
3.36171e-07
-7.43044e-06
4.52749e-07
-7.25576e-06
5.7193e-07
-7.04292e-06
6.93434e-07
-6.79099e-06
8.16604e-07
-6.49933e-06
9.40341e-07
-6.16773e-06
1.06303e-06
-5.7966e-06
1.18246e-06
-5.38724e-06
1.2958e-06
-4.94204e-06
1.39957e-06
-4.46475e-06
1.48962e-06
-3.96074e-06
1.56122e-06
-3.43723e-06
1.60916e-06
-2.90346e-06
1.6279e-06
-2.37078e-06
1.61186e-06
-1.85268e-06
1.5557e-06
-1.3646e-06
1.45466e-06
-9.23624e-07
1.30496e-06
-5.48023e-07
1.10417e-06
-2.56618e-07
8.51501e-07
-6.80641e-08
5.47956e-07
1.96689e-07
-6.6287e-08
-1.31375e-07
-2.4761e-07
-3.59896e-07
-5.25782e-07
-5.53081e-07
-8.82635e-07
-7.11004e-07
-1.30059e-06
-8.34745e-07
-1.7631e-06
-9.26187e-07
-2.25502e-06
-9.87868e-07
-2.76283e-06
-1.02279e-06
-3.27478e-06
-1.03425e-06
-3.78093e-06
-1.02562e-06
-4.27309e-06
-1.00024e-06
-4.74469e-06
-9.61268e-07
-5.19069e-06
-9.11595e-07
-5.60731e-06
-8.53784e-07
-5.99189e-06
-7.90038e-07
-6.34266e-06
-7.22192e-07
-6.65857e-06
-6.51715e-07
-6.93911e-06
-5.79736e-07
-7.18414e-06
-5.07069e-07
-7.39378e-06
-4.34252e-07
-7.56824e-06
-3.6158e-07
-7.70778e-06
-2.89149e-07
-7.81258e-06
-2.16889e-07
-7.88272e-06
-1.44606e-07
-7.91811e-06
-7.20204e-08
-7.91846e-06
1.19958e-09
-7.88332e-06
7.5396e-08
-7.81202e-06
1.50886e-07
-7.70377e-06
2.27917e-07
-7.55765e-06
3.06629e-07
-7.37273e-06
3.87006e-07
-7.14812e-06
4.6883e-07
-6.88315e-06
5.51633e-07
-6.57746e-06
6.34645e-07
-6.23118e-06
7.16752e-07
-5.84518e-06
7.96452e-07
-5.4212e-06
8.71829e-07
-4.96216e-06
9.40536e-07
-4.47235e-06
9.9981e-07
-3.95764e-06
1.04651e-06
-3.42568e-06
1.0772e-06
-2.88605e-06
1.08827e-06
-2.35027e-06
1.07608e-06
-1.83176e-06
1.03719e-06
-1.34565e-06
9.6855e-07
-9.08484e-07
8.6779e-07
-5.37719e-07
7.33409e-07
-2.5119e-07
5.64972e-07
-6.64465e-08
3.63213e-07
1.30242e-07
-6.58054e-08
-6.55701e-08
-2.46024e-07
-1.79678e-07
-5.22885e-07
-2.76219e-07
-8.78655e-07
-3.55235e-07
-1.29614e-06
-4.17255e-07
-1.75913e-06
-4.63203e-07
-2.25267e-06
-4.94325e-07
-2.76337e-06
-5.12098e-07
-3.27948e-06
-5.18139e-07
-3.79098e-06
-5.1412e-07
-4.28953e-06
-5.0169e-07
-4.76838e-06
-4.82416e-07
-5.22224e-06
-4.57735e-07
-5.6471e-06
-4.28926e-07
-6.04005e-06
-3.9709e-07
-6.39909e-06
-3.63147e-07
-6.72297e-06
-3.27835e-07
-7.01099e-06
-2.91723e-07
-7.26283e-06
-2.55226e-07
-7.47846e-06
-2.18617e-07
-7.65799e-06
-1.8205e-07
-7.80157e-06
-1.45577e-07
-7.90929e-06
-1.09168e-07
-7.98116e-06
-7.27311e-08
-8.01705e-06
-3.61302e-08
-8.01665e-06
7.9605e-10
-7.97947e-06
3.82142e-08
-7.90486e-06
7.62773e-08
-7.79205e-06
1.15104e-07
-7.64017e-06
1.54757e-07
-7.44839e-06
1.95221e-07
-7.21594e-06
2.36377e-07
-6.94229e-06
2.77982e-07
-6.62728e-06