/*--------------------------------*- C++ -*----------------------------------*\
  =========                 |
  \\      /  F ield         | OpenFOAM: The Open Source CFD Toolbox
   \\    /   O peration     | Website:  https://openfoam.org
    \\  /    A nd           | Version:  7
     \\/     M anipulation  |
\*---------------------------------------------------------------------------*/
FoamFile
{
    version     2.0;
    format      ascii;
    class       volScalarField;
    location    "0.0138";
    object      p;
}
// * * * * * * * * * * * * * * * * * * * * * * * * * * * * * * * * * * * * * //

dimensions      [0 2 -2 0 0 0 0];

internalField   nonuniform List<scalar> 
2500
(
-2.37758e-07
6.38358
9.04446
10.135
10.7225
11.0677
11.2787
11.4177
11.5163
11.5904
11.6489
11.6974
11.7391
11.7762
11.8103
11.8424
11.8732
11.9032
11.9326
11.9617
11.9908
12.0198
12.0488
12.078
12.1074
12.137
12.1669
12.1972
12.228
12.2595
12.2918
12.3251
12.3598
12.3964
12.4352
12.4772
12.5233
12.5747
12.6335
12.7021
12.7844
12.8863
13.0172
13.1937
13.4479
13.8441
14.499
15.6849
18.4619
24.9688
4.8692
7.46756
8.88223
9.76195
10.3619
10.7653
11.0384
11.2297
11.3691
11.4744
11.5568
11.6237
11.6797
11.7282
11.7714
11.8108
11.8475
11.8822
11.9156
11.9481
11.9799
12.0113
12.0425
12.0736
12.1047
12.136
12.1677
12.1998
12.2326
12.2662
12.301
12.3374
12.3756
12.4165
12.4607
12.5092
12.5634
12.6252
12.6971
12.7827
12.8871
13.0182
13.1877
13.4141
13.728
14.1801
14.84
15.793
17.2935
20.0083
7.70859
8.47022
9.21046
9.83065
10.314
10.6738
10.9393
11.1374
11.2879
11.405
11.4983
11.5747
11.6388
11.6942
11.7431
11.7873
11.8281
11.8662
11.9025
11.9374
11.9713
12.0045
12.0373
12.0699
12.1024
12.135
12.1679
12.2014
12.2356
12.2708
12.3074
12.3458
12.3865
12.4302
12.4778
12.5304
12.5895
12.6572
12.7361
12.83
12.944
13.0853
13.2641
13.495
13.7982
14.2019
14.7358
15.4109
16.2058
17.031
9.12252
9.29679
9.67308
10.0713
10.4178
10.7015
10.9285
11.1089
11.2529
11.3691
11.4643
11.5438
11.6115
11.6704
11.7226
11.7698
11.8132
11.8537
11.8921
11.9288
11.9643
11.9989
12.033
12.0667
12.1002
12.1339
12.1679
12.2023
12.2376
12.274
12.3119
12.3516
12.3939
12.4394
12.489
12.5439
12.6055
12.6758
12.7573
12.8533
12.9679
13.1069
13.2773
13.488
13.7493
14.0711
14.4587
14.898
15.3099
15.5137
9.93954
9.91541
10.0883
10.3292
10.566
10.7789
10.9626
11.1175
11.2471
11.3559
11.4477
11.5263
11.5945
11.6545
11.7082
11.757
11.802
11.8441
11.8839
11.9219
11.9586
11.9943
12.0294
12.064
12.0984
12.1329
12.1677
12.203
12.2391
12.2763
12.315
12.3558
12.3991
12.4456
12.4963
12.5522
12.6146
12.6854
12.7665
12.8606
12.9709
13.1012
13.2556
13.4384
13.6528
13.8983
14.168
14.4388
14.6342
14.6211
10.4553
10.3656
10.4313
10.5706
10.7274
10.8819
11.025
11.1527
11.2646
11.3621
11.4472
11.5218
11.5878
11.6469
11.7005
11.7496
11.7952
11.8379
11.8784
11.9172
11.9546
11.9911
12.0268
12.0621
12.0971
12.1322
12.1675
12.2034
12.24
12.2778
12.3171
12.3583
12.4021
12.449
12.4999
12.5557
12.6176
12.6869
12.7655
12.855
12.9577
13.0756
13.2107
13.3641
13.5344
13.7165
13.8992
14.06
14.1388
14.0497
10.7995
10.6968
10.709
10.7852
10.8858
10.9949
11.1032
11.2053
11.299
11.3837
11.4599
11.5286
11.5907
11.6473
11.6994
11.7476
11.7927
11.8354
11.876
11.915
11.9527
11.9895
12.0255
12.0612
12.0966
12.132
12.1677
12.2038
12.2407
12.2788
12.3182
12.3596
12.4033
12.4499
12.5003
12.555
12.6152
12.6819
12.7562
12.8394
12.9326
13.0368
13.152
13.2774
13.4096
13.5417
13.6625
13.754
13.773
13.6654
11.0436
10.946
10.9322
10.97
11.0323
11.1075
11.1877
11.2676
11.3441
11.416
11.4827
11.5445
11.6016
11.6546
11.7041
11.7506
11.7946
11.8364
11.8765
11.9152
11.9528
11.9895
12.0256
12.0613
12.0968
12.1323
12.1681
12.2043
12.2413
12.2793
12.3187
12.3598
12.403
12.4489
12.4981
12.5512
12.6089
12.672
12.7411
12.8171
12.9002
12.9904
13.087
13.1877
13.2886
13.3827
13.4605
13.5088
13.4979
13.3929
11.226
11.1381
11.1121
11.1267
11.1633
11.2138
11.2722
11.3336
11.3952
11.4551
11.5125
11.5671
11.6187
11.6675
11.7139
11.758
11.8002
11.8407
11.8798
11.9178
11.9549
11.9912
12.0271
12.0626
12.0979
12.1333
12.169
12.2051
12.2419
12.2796
12.3186
12.3591
12.4016
12.4464
12.4941
12.545
12.5997
12.6586
12.7221
12.7905
12.8636
12.9408
13.0206
13.1006
13.1765
13.2424
13.2907
13.3123
13.2865
13.1904
11.3676
11.2895
11.2583
11.259
11.2785
11.3114
11.3531
11.3997
11.4486
11.4979
11.5467
11.5943
11.6403
11.6847
11.7275
11.7689
11.8089
11.8477
11.8855
11.9225
11.9587
11.9944
12.0298
12.0649
12.0999
12.135
12.1703
12.2061
12.2425
12.2798
12.3182
12.3579
12.3994
12.4428
12.4885
12.5369
12.5883
12.6429
12.7007
12.7617
12.8254
12.8907
12.9561
13.0189
13.0754
13.1206
13.1488
13.1538
13.1212
13.0348
11.4805
11.4111
11.3783
11.3707
11.3789
11.3992
11.4284
11.4633
11.5018
11.5421
11.5831
11.6242
11.6649
11.7049
11.7441
11.7825
11.8201
11.857
11.8932
11.9289
11.9641
11.999
12.0336
12.0681
12.1026
12.1372
12.172
12.2073
12.2432
12.2799
12.3175
12.3563
12.3965
12.4383
12.482
12.5277
12.5756
12.6258
12.6781
12.7321
12.7871
12.8421
12.8952
12.9442
12.9857
13.0157
13.0302
13.0251
12.9899
12.9125
11.5722
11.5102
11.4775
11.4652
11.4659
11.4774
11.4972
11.5231
11.5531
11.5858
11.6201
11.6554
11.6911
11.7269
11.7626
11.798
11.8331
11.868
11.9025
11.9367
11.9707
12.0045
12.0383
12.072
12.1058
12.1398
12.1741
12.2088
12.244
12.2799
12.3166
12.3543
12.3931
12.4332
12.4747
12.5177
12.5622
12.6081
12.655
12.7026
12.75
12.796
12.839
12.8768
12.9068
12.9258
12.931
12.9198
12.8842
12.8148
11.6476
11.5919
11.5602
11.5452
11.541
11.5463
11.5593
11.5781
11.6013
11.6277
11.6564
11.6866
11.7178
11.7497
11.7821
11.8146
11.8473
11.88
11.9127
11.9454
11.9781
12.0109
12.0436
12.0765
12.1096
12.1428
12.1764
12.2103
12.2448
12.2798
12.3155
12.352
12.3893
12.4277
12.467
12.5073
12.5484
12.5902
12.6323
12.6741
12.7148
12.7532
12.7878
12.8168
12.838
12.8491
12.848
12.8332
12.7984
12.736
11.7101
11.6597
11.6294
11.613
11.6058
11.6067
11.6146
11.6281
11.6459
11.6672
11.691
11.7169
11.7441
11.7725
11.8018
11.8316
11.8619
11.8926
11.9236
11.9547
11.9861
12.0177
12.0494
12.0814
12.1136
12.146
12.1788
12.212
12.2456
12.2796
12.3143
12.3495
12.3854
12.4219
12.459
12.4967
12.5347
12.5727
12.6104
12.6471
12.682
12.7139
12.7417
12.7637
12.7783
12.7837
12.7784
12.7616
12.7283
12.6719
11.7621
11.7163
11.6876
11.6707
11.6614
11.6593
11.6635
11.6729
11.6865
11.7036
11.7235
11.7455
11.7694
11.7947
11.8211
11.8485
11.8766
11.9053
11.9346
11.9642
11.9943
12.0246
12.0553
12.0863
12.1177
12.1493
12.1813
12.2136
12.2463
12.2794
12.3129
12.3469
12.3813
12.416
12.4511
12.4862
12.5213
12.5559
12.5897
12.6219
12.6518
12.6784
12.7006
12.7172
12.7268
12.7281
12.7201
12.7023
12.6707
12.6197
11.8055
11.7636
11.7365
11.7195
11.7091
11.7049
11.7063
11.7126
11.7229
11.7366
11.7532
11.7722
11.7931
11.8157
11.8396
11.8647
11.8908
11.9177
11.9454
11.9736
12.0023
12.0316
12.0612
12.0913
12.1217
12.1525
12.1836
12.2151
12.2469
12.279
12.3115
12.3442
12.3771
12.4102
12.4432
12.4761
12.5085
12.5401
12.5703
12.5986
12.6244
12.6466
12.6644
12.6768
12.6826
12.6809
12.6712
12.6531
12.6234
12.5771
11.8417
11.8032
11.7776
11.7608
11.7497
11.7441
11.7435
11.7474
11.7551
11.7662
11.7801
11.7964
11.8149
11.8351
11.8569
11.88
11.9043
11.9296
11.9557
11.9826
12.0101
12.0383
12.0669
12.0961
12.1256
12.1556
12.1859
12.2165
12.2474
12.2786
12.3099
12.3415
12.373
12.4045
12.4357
12.4665
12.4965
12.5253
12.5526
12.5776
12.5998
12.6185
12.6328
12.6418
12.6449
12.6411
12.6303
12.6124
12.5845
12.5422
11.8717
11.8361
11.812
11.7955
11.7841
11.7775
11.7755
11.7776
11.7833
11.7922
11.804
11.8182
11.8345
11.8528
11.8727
11.894
11.9167
11.9405
11.9653
11.991
12.0174
12.0445
12.0722
12.1005
12.1292
12.1584
12.1879
12.2177
12.2478
12.278
12.3084
12.3388
12.3691
12.3991
12.4287
12.4575
12.4854
12.5119
12.5366
12.5589
12.5782
12.5939
12.6054
12.612
12.6129
12.6078
12.5963
12.5788
12.5526
12.5139
11.8965
11.8633
11.8405
11.8245
11.8129
11.8057
11.8026
11.8034
11.8075
11.8148
11.8248
11.8372
11.8518
11.8684
11.8867
11.9066
11.9279
11.9504
11.974
11.9986
12.024
12.0502
12.0771
12.1045
12.1325
12.1609
12.1897
12.2187
12.248
12.2774
12.3069
12.3362
12.3654
12.3941
12.4222
12.4494
12.4755
12.4999
12.5224
12.5424
12.5594
12.5728
12.5821
12.5867
12.5862
12.58
12.5683
12.5513
12.5266
12.4909
11.9166
11.8855
11.8638
11.8483
11.8367
11.829
11.8253
11.825
11.828
11.8339
11.8425
11.8535
11.8667
11.8819
11.8989
11.9175
11.9376
11.959
11.9816
12.0053
12.0298
12.0552
12.0813
12.1081
12.1354
12.1631
12.1912
12.2196
12.2481
12.2768
12.3054
12.3339
12.362
12.3896
12.4164
12.4422
12.4667
12.4895
12.5102
12.5283
12.5434
12.555
12.5626
12.5657
12.5641
12.5573
12.5455
12.529
12.5057
12.4725
11.9327
11.9033
11.8825
11.8674
11.8559
11.848
11.8437
11.8427
11.8447
11.8496
11.8571
11.867
11.8791
11.8932
11.9092
11.9268
11.9459
11.9664
11.9881
12.011
12.0348
12.0595
12.0849
12.1111
12.1378
12.1649
12.1925
12.2203
12.2482
12.2762
12.3041
12.3318
12.359
12.3857
12.4114
12.4361
12.4593
12.4807
12.5
12.5166
12.5302
12.5404
12.5467
12.5487
12.5463
12.5391
12.5273
12.5113
12.4892
12.458
11.9451
11.917
11.897
11.8822
11.8708
11.8628
11.8581
11.8566
11.858
11.8621
11.8688
11.8778
11.8891
11.9023
11.9174
11.9342
11.9526
11.9723
11.9934
12.0156
12.0388
12.0629
12.0879
12.1135
12.1397
12.1664
12.1935
12.2208
12.2482
12.2757
12.303
12.33
12.3566
12.3824
12.4074
12.4311
12.4533
12.4736
12.4918
12.5073
12.5198
12.5288
12.5342
12.5354
12.5324
12.525
12.5133
12.4977
12.4765
12.447
11.9542
11.927
11.9076
11.8931
11.8818
11.8737
11.8688
11.8669
11.8678
11.8714
11.8775
11.8859
11.8965
11.9091
11.9236
11.9398
11.9576
11.9768
11.9974
12.0191
12.0419
12.0656
12.0901
12.1154
12.1412
12.1675
12.1942
12.2211
12.2482
12.2752
12.3021
12.3287
12.3547
12.38
12.4042
12.4273
12.4487
12.4683
12.4856
12.5003
12.5119
12.5203
12.5249
12.5256
12.5222
12.5147
12.5031
12.4878
12.4673
12.4391
11.9601
11.9336
11.9146
11.9003
11.889
11.8809
11.8758
11.8737
11.8743
11.8776
11.8833
11.8913
11.9015
11.9137
11.9278
11.9436
11.961
11.9798
12
12.0214
12.0439
12.0673
12.0916
12.1166
12.1422
12.1682
12.1947
12.2214
12.2482
12.2749
12.3015
12.3277
12.3534
12.3783
12.4021
12.4247
12.4457
12.4647
12.4815
12.4956
12.5067
12.5146
12.5188
12.5192
12.5156
12.5079
12.4964
12.4814
12.4614
12.4339
11.9631
11.9368
11.918
11.9038
11.8926
11.8844
11.8793
11.8771
11.8776
11.8806
11.8862
11.894
11.904
11.916
11.9298
11.9454
11.9627
11.9813
12.0014
12.0226
12.0449
12.0682
12.0923
12.1172
12.1427
12.1686
12.1949
12.2215
12.2481
12.2748
12.3012
12.3272
12.3527
12.3774
12.4011
12.4234
12.4441
12.4629
12.4794
12.4933
12.5042
12.5117
12.5158
12.516
12.5123
12.5046
12.4931
12.4782
12.4584
12.4313
11.9631
11.9368
11.918
11.9038
11.8926
11.8844
11.8793
11.8771
11.8776
11.8806
11.8862
11.894
11.904
11.916
11.9298
11.9454
11.9627
11.9813
12.0014
12.0226
12.0449
12.0682
12.0923
12.1172
12.1427
12.1686
12.1949
12.2215
12.2481
12.2748
12.3012
12.3272
12.3527
12.3774
12.4011
12.4234
12.4441
12.4629
12.4794
12.4933
12.5042
12.5117
12.5158
12.516
12.5123
12.5046
12.4931
12.4782
12.4584
12.4313
11.9601
11.9336
11.9146
11.9003
11.889
11.8809
11.8758
11.8737
11.8743
11.8776
11.8833
11.8913
11.9015
11.9137
11.9278
11.9436
11.961
11.9798
12
12.0214
12.0439
12.0673
12.0916
12.1166
12.1422
12.1682
12.1947
12.2214
12.2482
12.2749
12.3015
12.3277
12.3534
12.3783
12.4021
12.4247
12.4457
12.4647
12.4815
12.4956
12.5067
12.5146
12.5188
12.5192
12.5156
12.5079
12.4964
12.4814
12.4614
12.4339
11.9542
11.927
11.9076
11.8931
11.8818
11.8737
11.8688
11.8669
11.8678
11.8714
11.8775
11.8859
11.8965
11.9091
11.9236
11.9398
11.9576
11.9768
11.9974
12.0191
12.0419
12.0656
12.0901
12.1154
12.1412
12.1675
12.1942
12.2211
12.2482
12.2752
12.3021
12.3287
12.3547
12.38
12.4042
12.4273
12.4487
12.4683
12.4856
12.5003
12.5119
12.5203
12.5249
12.5256
12.5222
12.5147
12.5031
12.4878
12.4673
12.4391
11.9451
11.917
11.897
11.8822
11.8708
11.8628
11.8581
11.8566
11.858
11.8621
11.8688
11.8778
11.8891
11.9023
11.9174
11.9342
11.9526
11.9723
11.9934
12.0156
12.0388
12.0629
12.0879
12.1135
12.1397
12.1664
12.1935
12.2208
12.2482
12.2757
12.303
12.33
12.3566
12.3824
12.4074
12.4311
12.4533
12.4736
12.4918
12.5073
12.5198
12.5288
12.5342
12.5354
12.5324
12.525
12.5133
12.4977
12.4765
12.447
11.9327
11.9033
11.8825
11.8674
11.8559
11.848
11.8437
11.8427
11.8447
11.8496
11.8571
11.867
11.8791
11.8932
11.9092
11.9268
11.9459
11.9664
11.9881
12.011
12.0348
12.0595
12.0849
12.1111
12.1378
12.1649
12.1925
12.2203
12.2482
12.2762
12.3041
12.3318
12.359
12.3857
12.4114
12.4361
12.4593
12.4807
12.5
12.5166
12.5302
12.5404
12.5467
12.5487
12.5463
12.5391
12.5273
12.5113
12.4892
12.458
11.9166
11.8855
11.8638
11.8483
11.8367
11.829
11.8253
11.825
11.828
11.8339
11.8425
11.8535
11.8667
11.8819
11.8989
11.9175
11.9376
11.959
11.9816
12.0053
12.0298
12.0552
12.0813
12.1081
12.1354
12.1631
12.1912
12.2196
12.2481
12.2768
12.3054
12.3339
12.362
12.3896
12.4164
12.4422
12.4667
12.4895
12.5102
12.5283
12.5434
12.555
12.5626
12.5657
12.5641
12.5573
12.5455
12.529
12.5057
12.4725
11.8965
11.8633
11.8405
11.8245
11.8129
11.8057
11.8026
11.8034
11.8075
11.8148
11.8248
11.8372
11.8518
11.8684
11.8867
11.9066
11.9279
11.9504
11.974
11.9986
12.024
12.0502
12.0771
12.1045
12.1325
12.1609
12.1897
12.2187
12.248
12.2774
12.3069
12.3362
12.3654
12.3941
12.4222
12.4494
12.4755
12.4999
12.5224
12.5424
12.5594
12.5728
12.5821
12.5867
12.5862
12.58
12.5683
12.5513
12.5266
12.4909
11.8717
11.8361
11.812
11.7955
11.7841
11.7775
11.7755
11.7776
11.7833
11.7922
11.804
11.8182
11.8345
11.8528
11.8727
11.894
11.9167
11.9405
11.9653
11.991
12.0174
12.0445
12.0722
12.1005
12.1292
12.1584
12.1879
12.2177
12.2478
12.278
12.3084
12.3388
12.3691
12.3991
12.4287
12.4575
12.4854
12.5119
12.5366
12.5589
12.5782
12.5939
12.6054
12.612
12.6129
12.6078
12.5963
12.5788
12.5526
12.5138
11.8417
11.8032
11.7776
11.7608
11.7497
11.7441
11.7435
11.7474
11.7551
11.7662
11.7801
11.7964
11.8149
11.8351
11.8569
11.88
11.9043
11.9296
11.9557
11.9826
12.0101
12.0383
12.0669
12.0961
12.1256
12.1556
12.1859
12.2165
12.2474
12.2786
12.3099
12.3415
12.373
12.4045
12.4357
12.4665
12.4965
12.5253
12.5526
12.5776
12.5998
12.6185
12.6328
12.6418
12.6449
12.6411
12.6303
12.6124
12.5845
12.5422
11.8055
11.7636
11.7365
11.7195
11.7091
11.7049
11.7063
11.7126
11.7229
11.7366
11.7532
11.7722
11.7931
11.8157
11.8396
11.8647
11.8908
11.9177
11.9454
11.9736
12.0023
12.0316
12.0612
12.0913
12.1217
12.1525
12.1836
12.2151
12.2469
12.279
12.3115
12.3442
12.3771
12.4102
12.4432
12.4761
12.5085
12.5401
12.5703
12.5986
12.6244
12.6466
12.6644
12.6768
12.6826
12.6809
12.6712
12.6531
12.6234
12.577
11.7621
11.7163
11.6876
11.6707
11.6614
11.6593
11.6635
11.6729
11.6865
11.7036
11.7235
11.7455
11.7694
11.7947
11.8211
11.8485
11.8766
11.9053
11.9346
11.9642
11.9943
12.0246
12.0553
12.0863
12.1177
12.1493
12.1813
12.2136
12.2463
12.2794
12.3129
12.3469
12.3813
12.416
12.4511
12.4862
12.5213
12.5559
12.5897
12.6219
12.6518
12.6784
12.7006
12.7172
12.7268
12.7281
12.7201
12.7023
12.6707
12.6197
11.7101
11.6597
11.6294
11.613
11.6058
11.6067
11.6146
11.6281
11.6459
11.6672
11.691
11.7169
11.7442
11.7726
11.8018
11.8316
11.8619
11.8926
11.9236
11.9547
11.9861
12.0177
12.0494
12.0814
12.1136
12.146
12.1788
12.212
12.2456
12.2796
12.3143
12.3495
12.3854
12.4219
12.459
12.4967
12.5347
12.5727
12.6104
12.6471
12.6819
12.7139
12.7417
12.7637
12.7783
12.7837
12.7784
12.7616
12.7283
12.6719
11.6476
11.5919
11.5602
11.5452
11.541
11.5463
11.5593
11.5781
11.6013
11.6277
11.6564
11.6866
11.7178
11.7497
11.7821
11.8146
11.8473
11.88
11.9127
11.9454
11.9781
12.0109
12.0436
12.0765
12.1096
12.1428
12.1764
12.2103
12.2448
12.2798
12.3155
12.352
12.3893
12.4277
12.467
12.5073
12.5484
12.5902
12.6323
12.6741
12.7148
12.7532
12.7878
12.8168
12.838
12.8491
12.848
12.8332
12.7984
12.7359
11.5722
11.5102
11.4775
11.4652
11.4659
11.4774
11.4972
11.5231
11.5531
11.5858
11.6201
11.6554
11.6911
11.7269
11.7626
11.798
11.8331
11.868
11.9025
11.9367
11.9707
12.0045
12.0383
12.072
12.1058
12.1398
12.1741
12.2088
12.244
12.2799
12.3166
12.3543
12.3931
12.4332
12.4747
12.5177
12.5622
12.6081
12.655
12.7026
12.75
12.796
12.839
12.8768
12.9068
12.9258
12.931
12.9198
12.8842
12.8148
11.4805
11.4111
11.3783
11.3707
11.3789
11.3992
11.4284
11.4633
11.5018
11.5421
11.5831
11.6242
11.6649
11.7049
11.7441
11.7825
11.8201
11.857
11.8932
11.9289
11.9641
11.999
12.0336
12.0681
12.1026
12.1372
12.172
12.2073
12.2432
12.2799
12.3175
12.3563
12.3965
12.4383
12.482
12.5277
12.5756
12.6258
12.678
12.732
12.7871
12.8421
12.8952
12.9442
12.9857
13.0157
13.0302
13.0251
12.9899
12.9124
11.3676
11.2895
11.2583
11.259
11.2785
11.3114
11.3531
11.3997
11.4486
11.4979
11.5467
11.5943
11.6403
11.6847
11.7276
11.7689
11.8089
11.8477
11.8855
11.9225
11.9587
11.9945
12.0298
12.0649
12.0999
12.135
12.1703
12.2061
12.2425
12.2798
12.3182
12.3579
12.3994
12.4428
12.4885
12.5369
12.5883
12.6429
12.7007
12.7617
12.8254
12.8907
12.9561
13.0189
13.0754
13.1206
13.1488
13.1538
13.1212
13.0348
11.226
11.1381
11.1121
11.1267
11.1633
11.2138
11.2722
11.3336
11.3952
11.4551
11.5125
11.5671
11.6187
11.6675
11.7139
11.758
11.8002
11.8407
11.8798
11.9178
11.9549
11.9912
12.0271
12.0626
12.0979
12.1333
12.169
12.2051
12.2419
12.2796
12.3186
12.3591
12.4016
12.4464
12.4941
12.545
12.5996
12.6586
12.7221
12.7905
12.8636
12.9408
13.0206
13.1006
13.1765
13.2424
13.2907
13.3123
13.2865
13.1904
11.0436
10.946
10.9322
10.97
11.0323
11.1075
11.1877
11.2676
11.3441
11.416
11.4827
11.5445
11.6016
11.6546
11.7041
11.7506
11.7946
11.8364
11.8765
11.9152
11.9528
11.9895
12.0256
12.0613
12.0968
12.1323
12.1681
12.2043
12.2413
12.2793
12.3187
12.3598
12.403
12.4489
12.4981
12.5512
12.6089
12.672
12.7411
12.8171
12.9002
12.9904
13.087
13.1877
13.2886
13.3827
13.4605
13.5088
13.4978
13.3929
10.7995
10.6968
10.709
10.7852
10.8858
10.9949
11.1032
11.2053
11.299
11.3837
11.4599
11.5286
11.5907
11.6473
11.6994
11.7476
11.7928
11.8354
11.876
11.915
11.9527
11.9895
12.0255
12.0612
12.0966
12.132
12.1677
12.2038
12.2407
12.2788
12.3182
12.3596
12.4033
12.4499
12.5003
12.555
12.6152
12.6819
12.7562
12.8394
12.9326
13.0368
13.152
13.2774
13.4096
13.5417
13.6625
13.7539
13.773
13.6654
10.4553
10.3656
10.4313
10.5706
10.7274
10.8819
11.025
11.1527
11.2646
11.3621
11.4472
11.5218
11.5878
11.6469
11.7005
11.7496
11.7952
11.8379
11.8784
11.9172
11.9546
11.9911
12.0268
12.0621
12.0971
12.1322
12.1675
12.2034
12.24
12.2778
12.3171
12.3583
12.4021
12.449
12.4999
12.5557
12.6175
12.6869
12.7654
12.855
12.9577
13.0756
13.2107
13.3641
13.5344
13.7165
13.8992
14.06
14.1388
14.0497
9.93954
9.91541
10.0883
10.3292
10.566
10.7789
10.9626
11.1175
11.2471
11.3559
11.4477
11.5263
11.5945
11.6545
11.7082
11.757
11.802
11.8441
11.8839
11.9219
11.9586
11.9943
12.0294
12.064
12.0984
12.1329
12.1677
12.203
12.2391
12.2763
12.315
12.3558
12.3991
12.4456
12.4963
12.5522
12.6146
12.6854
12.7665
12.8606
12.9709
13.1012
13.2556
13.4384
13.6528
13.8983
14.168
14.4388
14.6342
14.6211
9.12252
9.29679
9.67308
10.0713
10.4178
10.7015
10.9285
11.1089
11.2529
11.3691
11.4643
11.5438
11.6115
11.6704
11.7226
11.7698
11.8132
11.8537
11.8921
11.9288
11.9643
11.9989
12.033
12.0667
12.1002
12.1339
12.1679
12.2023
12.2376
12.274
12.3119
12.3516
12.3939
12.4394
12.489
12.5439
12.6055
12.6758
12.7573
12.8533
12.9679
13.1069
13.2773
13.488
13.7493
14.0711
14.4587
14.898
15.3099
15.5137
7.70859
8.47022
9.21046
9.83065
10.314
10.6738
10.9393
11.1374
11.2879
11.405
11.4983
11.5747
11.6388
11.6942
11.7431
11.7873
11.8281
11.8662
11.9025
11.9374
11.9713
12.0046
12.0373
12.0699
12.1024
12.135
12.1679
12.2014
12.2356
12.2708
12.3074
12.3458
12.3865
12.4302
12.4778
12.5304
12.5895
12.6572
12.7361
12.83
12.944
13.0853
13.2641
13.495
13.7982
14.2019
14.7358
15.4109
16.2058
17.031
4.8692
7.46756
8.88223
9.76195
10.3619
10.7653
11.0384
11.2297
11.3691
11.4744
11.5568
11.6237
11.6797
11.7282
11.7714
11.8108
11.8475
11.8822
11.9157
11.9481
11.9799
12.0113
12.0425
12.0736
12.1047
12.1361
12.1677
12.1998
12.2326
12.2662
12.301
12.3374
12.3756
12.4165
12.4607
12.5092
12.5634
12.6252
12.6971
12.7827
12.8871
13.0182
13.1876
13.414
13.728
14.1801
14.84
15.793
17.2935
20.0083
-2.03209e-07
6.38358
9.04446
10.135
10.7225
11.0677
11.2787
11.4177
11.5163
11.5904
11.6489
11.6974
11.7391
11.7762
11.8103
11.8424
11.8732
11.9032
11.9326
11.9617
11.9908
12.0198
12.0488
12.078
12.1074
12.137
12.1669
12.1972
12.228
12.2595
12.2918
12.3251
12.3598
12.3964
12.4352
12.4772
12.5233
12.5747
12.6335
12.7021
12.7844
12.8863
13.0172
13.1937
13.4479
13.8441
14.499
15.6849
18.4619
24.9687
)
;

boundaryField
{
    movingWallTop
    {
        type            zeroGradient;
    }
    movingWallBottom
    {
        type            zeroGradient;
    }
    fixedWalls
    {
        type            zeroGradient;
    }
    frontAndBack
    {
        type            empty;
    }
}


// ************************************************************************* //
