/*--------------------------------*- C++ -*----------------------------------*\
  =========                 |
  \\      /  F ield         | OpenFOAM: The Open Source CFD Toolbox
   \\    /   O peration     | Website:  https://openfoam.org
    \\  /    A nd           | Version:  7
     \\/     M anipulation  |
\*---------------------------------------------------------------------------*/
FoamFile
{
    version     2.0;
    format      ascii;
    class       volScalarField;
    location    "0.0786";
    object      p;
}
// * * * * * * * * * * * * * * * * * * * * * * * * * * * * * * * * * * * * * //

dimensions      [0 2 -2 0 0 0 0];

internalField   nonuniform List<scalar> 
2500
(
1.81156e-05
6.38535
9.05063
10.1472
10.741
11.0919
11.3074
11.4493
11.5488
11.622
11.6779
11.7219
11.7576
11.7875
11.8133
11.8361
11.8569
11.8763
11.8949
11.913
11.9309
11.9489
11.9671
11.9857
12.0048
12.0246
12.0452
12.0667
12.0893
12.1132
12.1387
12.166
12.1956
12.2278
12.2633
12.3029
12.3476
12.3987
12.4581
12.5283
12.6132
12.7186
12.8537
13.0351
13.2947
13.6966
14.3573
15.5485
18.3299
24.8394
4.86795
7.46783
8.88612
9.77054
10.3753
10.783
11.0592
11.2523
11.3919
11.4958
11.5753
11.6378
11.6882
11.7299
11.7652
11.796
11.8234
11.8485
11.872
11.8943
11.9159
11.9372
11.9584
11.9798
12.0016
12.024
12.0471
12.0713
12.0968
12.1238
12.1526
12.1837
12.2176
12.2549
12.2964
12.3431
12.3965
12.4584
12.5312
12.6186
12.7256
12.8599
13.0332
13.2638
13.5823
14.0389
14.7033
15.6602
17.164
19.8815
7.70292
8.46691
9.21074
9.83515
10.3228
10.6861
10.954
11.1533
11.3036
11.419
11.5092
11.5811
11.6397
11.6885
11.7299
11.7659
11.7979
11.827
11.8539
11.8793
11.9037
11.9274
11.951
11.9745
11.9983
12.0227
12.0479
12.0741
12.1016
12.1308
12.1621
12.1959
12.2328
12.2735
12.319
12.3703
12.429
12.4971
12.5772
12.673
12.7895
12.9339
13.1163
13.3509
13.658
14.0654
14.603
15.2813
16.0794
16.9084
9.11055
9.28835
9.66859
10.0709
10.4216
10.7085
10.9377
11.119
11.2625
11.3767
11.4687
11.5437
11.6059
11.6584
11.7033
11.7427
11.7777
11.8095
11.839
11.8667
11.8932
11.9189
11.9442
11.9695
11.995
12.0209
12.0477
12.0755
12.1047
12.1356
12.1686
12.2044
12.2434
12.2864
12.3343
12.3883
12.4498
12.5208
12.6036
12.7015
12.8187
12.9606
13.1342
13.3482
13.6128
13.9379
14.3286
14.7709
15.1866
15.3952
9.9205
9.90121
10.0785
10.3235
10.5643
10.7803
10.9659
11.1215
11.2505
11.3573
11.4459
11.52
11.5827
11.6364
11.6831
11.7243
11.7613
11.795
11.8263
11.8558
11.8839
11.9112
11.9381
11.9648
11.9916
12.0189
12.047
12.0761
12.1066
12.1389
12.1733
12.2105
12.2509
12.2954
12.3447
12.4
12.4627
12.5343
12.6168
12.7129
12.8256
12.9585
13.1158
13.3015
13.5187
13.7671
14.0396
14.3135
14.5132
14.5064
10.4294
10.3458
10.4162
10.5595
10.72
10.8775
11.0224
11.1506
11.2618
11.3573
11.4391
11.5093
11.57
11.623
11.6698
11.7115
11.7494
11.7841
11.8165
11.8471
11.8765
11.9049
11.9329
11.9607
11.9886
12.017
12.0461
12.0762
12.1077
12.141
12.1763
12.2144
12.2556
12.3008
12.3506
12.406
12.4683
12.5386
12.6185
12.71
12.8148
12.9352
13.0728
13.2286
13.4015
13.5862
13.7717
13.9358
14.0195
13.9375
10.7679
10.672
10.6891
10.7693
10.8733
10.9851
11.0949
11.1975
11.2902
11.3729
11.4459
11.5102
11.5672
11.6178
11.6632
11.7044
11.7421
11.7771
11.8099
11.8411
11.8711
11.9003
11.929
11.9576
11.9863
12.0154
12.0452
12.0761
12.1082
12.142
12.178
12.2164
12.2579
12.303
12.3525
12.407
12.4676
12.5352
12.6109
12.6959
12.7911
12.8973
13.0148
13.1424
13.2769
13.4114
13.5351
13.6302
13.6543
13.5543
11.0077
10.9173
10.9085
10.9501
11.0154
11.0928
11.1743
11.2543
11.3299
11.3995
11.463
11.5205
11.5726
11.6198
11.6629
11.7026
11.7394
11.7738
11.8065
11.8378
11.868
11.8975
11.9266
11.9556
11.9848
12.0144
12.0446
12.0759
12.1084
12.1425
12.1785
12.2169
12.2582
12.3027
12.3512
12.4041
12.4622
12.5261
12.5966
12.6741
12.7589
12.8511
12.9496
13.0524
13.1554
13.2519
13.3327
13.3846
13.3788
13.2814
11.1876
11.1071
11.0859
11.1039
11.1431
11.1954
11.2545
11.3158
11.3761
11.4337
11.4878
11.5381
11.5847
11.6279
11.668
11.7055
11.7408
11.7742
11.8062
11.8371
11.8671
11.8966
11.9258
11.9549
11.9843
12.014
12.0445
12.0759
12.1084
12.1425
12.1784
12.2165
12.2571
12.3006
12.3475
12.3983
12.4533
12.513
12.5777
12.6475
12.7222
12.801
12.8826
12.9644
13.0424
13.1107
13.1619
13.187
13.1661
13.0771
11.3288
11.2576
11.2308
11.2345
11.2561
11.2902
11.3322
11.3782
11.4255
11.4724
11.5177
11.561
11.602
11.6409
11.6776
11.7126
11.7459
11.7779
11.8088
11.8389
11.8684
11.8976
11.9265
11.9556
11.9848
12.0146
12.0449
12.0762
12.1087
12.1425
12.1779
12.2153
12.255
12.2972
12.3422
12.3905
12.4421
12.4973
12.5562
12.6184
12.6834
12.7503
12.8173
12.8818
12.9402
12.9876
13.0185
13.0267
12.9986
12.9185
11.4432
11.38
11.3509
11.3457
11.3554
11.3764
11.4054
11.4393
11.4758
11.5133
11.5507
11.5875
11.6232
11.6576
11.6909
11.723
11.7541
11.7844
11.814
11.8431
11.8718
11.9003
11.9288
11.9575
11.9865
12.0159
12.0461
12.0771
12.1092
12.1425
12.1773
12.2138
12.2523
12.2929
12.3359
12.3815
12.4296
12.4803
12.5334
12.5885
12.6448
12.7011
12.7556
12.8061
12.8493
12.8812
12.8981
12.8957
12.8642
12.792
11.5381
11.4812
11.4515
11.4409
11.4425
11.4541
11.4732
11.4976
11.5252
11.5548
11.5853
11.6161
11.6468
11.6771
11.7068
11.7361
11.7649
11.7932
11.8213
11.8491
11.8768
11.9046
11.9324
11.9606
11.9891
12.0182
12.0479
12.0785
12.11
12.1427
12.1767
12.2122
12.2494
12.2883
12.3291
12.3718
12.4165
12.4628
12.5105
12.559
12.6074
12.6545
12.6987
12.7378
12.7692
12.7898
12.7968
12.7877
12.7549
12.6894
11.6183
11.5664
11.5368
11.5227
11.5189
11.5236
11.5353
11.5522
11.5726
11.5956
11.6202
11.6457
11.6718
11.6982
11.7246
11.7511
11.7775
11.8039
11.8303
11.8568
11.8834
11.9102
11.9372
11.9647
11.9926
12.0211
12.0503
12.0803
12.1112
12.1432
12.1763
12.2107
12.2464
12.2836
12.3222
12.3621
12.4033
12.4455
12.4882
12.5307
12.5722
12.6115
12.6471
12.677
12.6993
12.7114
12.7115
12.698
12.665
12.605
11.6868
11.6388
11.6096
11.5934
11.5857
11.5855
11.5916
11.6026
11.6173
11.6348
11.6544
11.6754
11.6974
11.7202
11.7435
11.7673
11.7914
11.8158
11.8405
11.8656
11.891
11.9168
11.943
11.9697
11.9969
12.0248
12.0533
12.0827
12.1128
12.144
12.1761
12.2093
12.2436
12.2789
12.3153
12.3526
12.3906
12.4289
12.467
12.5043
12.5398
12.5724
12.6008
12.6234
12.6385
12.6443
12.6395
12.6232
12.5905
12.5351
11.7458
11.7007
11.672
11.6545
11.6441
11.6403
11.6421
11.6486
11.6588
11.6718
11.6871
11.7042
11.7227
11.7423
11.7628
11.784
11.806
11.8285
11.8516
11.8752
11.8994
11.9241
11.9494
11.9752
12.0017
12.0289
12.0567
12.0853
12.1148
12.145
12.1761
12.2081
12.2409
12.2746
12.3089
12.3436
12.3786
12.4134
12.4474
12.48
12.5103
12.5372
12.5597
12.5764
12.586
12.587
12.5787
12.5605
12.5285
12.4769
11.7967
11.754
11.7258
11.7073
11.6951
11.6886
11.6872
11.6902
11.6967
11.7061
11.7179
11.7317
11.7471
11.7639
11.7818
11.8008
11.8207
11.8415
11.863
11.8852
11.9082
11.9318
11.9562
11.9812
12.0069
12.0333
12.0604
12.0883
12.1169
12.1463
12.1764
12.2072
12.2386
12.2706
12.3029
12.3353
12.3675
12.3991
12.4294
12.4579
12.4838
12.506
12.5237
12.5356
12.5408
12.5383
12.5274
12.508
12.4767
12.4282
11.8407
11.7997
11.772
11.753
11.7394
11.7309
11.7271
11.7273
11.7309
11.7374
11.7463
11.7573
11.7701
11.7845
11.8002
11.8171
11.8352
11.8543
11.8743
11.8953
11.9171
11.9397
11.9631
11.9873
12.0122
12.0378
12.0642
12.0914
12.1192
12.1477
12.1768
12.2064
12.2366
12.2669
12.2974
12.3277
12.3574
12.3861
12.4133
12.4383
12.4604
12.4787
12.4923
12.5005
12.5022
12.4969
12.4842
12.4641
12.4335
12.3877
11.8785
11.8389
11.8116
11.7921
11.7775
11.7676
11.7619
11.76
11.7614
11.7655
11.7721
11.7808
11.7913
11.8036
11.8174
11.8326
11.849
11.8666
11.8853
11.905
11.9257
11.9474
11.9699
11.9932
12.0174
12.0424
12.068
12.0944
12.1215
12.1492
12.1773
12.2059
12.2348
12.2638
12.2926
12.3209
12.3484
12.3747
12.3991
12.4211
12.4399
12.4549
12.4653
12.4704
12.4695
12.4621
12.448
12.4274
12.3975
12.354
11.9106
11.8721
11.8451
11.8254
11.8101
11.7991
11.792
11.7884
11.788
11.7902
11.7949
11.8017
11.8105
11.821
11.8331
11.8467
11.8617
11.878
11.8955
11.9142
11.9339
11.9546
11.9763
11.9989
12.0224
12.0467
12.0717
12.0974
12.1238
12.1507
12.178
12.2056
12.2334
12.261
12.2884
12.315
12.3406
12.3647
12.3867
12.4062
12.4224
12.4347
12.4424
12.4451
12.4421
12.4331
12.418
12.3971
12.3679
12.3262
11.9376
11.8998
11.8731
11.8533
11.8374
11.8256
11.8174
11.8126
11.8108
11.8115
11.8147
11.82
11.8272
11.8363
11.8471
11.8594
11.8732
11.8883
11.9048
11.9225
11.9413
11.9613
11.9823
12.0042
12.027
12.0507
12.0751
12.1002
12.1259
12.1521
12.1786
12.2054
12.2322
12.2587
12.2848
12.31
12.3339
12.3562
12.3763
12.3936
12.4076
12.4177
12.4234
12.4241
12.4194
12.4092
12.3934
12.3723
12.3437
12.3035
11.9597
11.9225
11.896
11.876
11.8598
11.8474
11.8384
11.8326
11.8297
11.8293
11.8313
11.8354
11.8414
11.8494
11.859
11.8702
11.883
11.8973
11.9129
11.9297
11.9478
11.9671
11.9874
12.0088
12.031
12.0542
12.0781
12.1026
12.1278
12.1534
12.1793
12.2053
12.2312
12.2568
12.2818
12.3058
12.3284
12.3491
12.3676
12.3832
12.3955
12.4038
12.4078
12.407
12.4012
12.39
12.3736
12.3525
12.3244
12.2855
11.9771
11.9404
11.914
11.894
11.8775
11.8646
11.8551
11.8486
11.8448
11.8436
11.8447
11.8478
11.853
11.86
11.8687
11.8791
11.8911
11.9046
11.9195
11.9357
11.9532
11.9719
11.9918
12.0126
12.0344
12.0571
12.0805
12.1047
12.1294
12.1545
12.1798
12.2052
12.2305
12.2553
12.2794
12.3024
12.3239
12.3435
12.3607
12.375
12.3859
12.3929
12.3957
12.3937
12.3869
12.3751
12.3583
12.3372
12.3095
12.2715
11.99
11.9536
11.9274
11.9073
11.8906
11.8774
11.8675
11.8605
11.8562
11.8543
11.8547
11.8572
11.8617
11.868
11.8762
11.8859
11.8973
11.9102
11.9246
11.9404
11.9574
11.9757
11.9951
12.0156
12.037
12.0594
12.0825
12.1063
12.1306
12.1553
12.1803
12.2052
12.23
12.2542
12.2777
12.2999
12.3206
12.3394
12.3556
12.3689
12.3788
12.3849
12.3867
12.3839
12.3765
12.3641
12.3472
12.326
12.2986
12.2614
11.9986
11.9624
11.9362
11.9161
11.8993
11.8859
11.8757
11.8684
11.8637
11.8615
11.8615
11.8635
11.8676
11.8735
11.8811
11.8905
11.9015
11.9141
11.9281
11.9435
11.9602
11.9782
11.9974
12.0176
12.0388
12.0609
12.0838
12.1074
12.1315
12.1559
12.1806
12.2052
12.2296
12.2535
12.2765
12.2983
12.3185
12.3366
12.3522
12.3649
12.3741
12.3795
12.3807
12.3775
12.3696
12.3569
12.3398
12.3187
12.2915
12.2547
12.0029
11.9668
11.9406
11.9205
11.9036
11.8901
11.8798
11.8723
11.8675
11.865
11.8648
11.8667
11.8705
11.8762
11.8837
11.8928
11.9036
11.916
11.9298
11.9451
11.9617
11.9795
11.9985
12.0186
12.0397
12.0617
12.0845
12.1079
12.1319
12.1562
12.1807
12.2052
12.2295
12.2531
12.2759
12.2975
12.3174
12.3352
12.3505
12.3629
12.3718
12.3769
12.3778
12.3743
12.3662
12.3534
12.3362
12.3151
12.288
12.2514
12.0029
11.9668
11.9406
11.9205
11.9036
11.8901
11.8798
11.8723
11.8675
11.865
11.8648
11.8667
11.8705
11.8762
11.8837
11.8928
11.9036
11.916
11.9298
11.9451
11.9617
11.9795
11.9985
12.0186
12.0397
12.0617
12.0845
12.1079
12.1319
12.1562
12.1807
12.2052
12.2295
12.2531
12.2759
12.2975
12.3174
12.3352
12.3505
12.3629
12.3718
12.3769
12.3778
12.3743
12.3662
12.3534
12.3362
12.3151
12.288
12.2514
11.9986
11.9624
11.9362
11.9161
11.8993
11.8859
11.8757
11.8684
11.8637
11.8615
11.8615
11.8635
11.8676
11.8735
11.8811
11.8905
11.9015
11.9141
11.9281
11.9435
11.9602
11.9782
11.9974
12.0176
12.0388
12.0609
12.0838
12.1074
12.1315
12.1559
12.1806
12.2052
12.2296
12.2535
12.2765
12.2983
12.3185
12.3366
12.3522
12.3649
12.3741
12.3795
12.3807
12.3775
12.3696
12.3569
12.3398
12.3187
12.2915
12.2547
11.99
11.9536
11.9274
11.9073
11.8906
11.8774
11.8675
11.8605
11.8562
11.8543
11.8547
11.8572
11.8617
11.868
11.8762
11.8859
11.8973
11.9102
11.9246
11.9404
11.9574
11.9757
11.9951
12.0156
12.037
12.0594
12.0825
12.1063
12.1306
12.1553
12.1803
12.2052
12.23
12.2542
12.2777
12.2999
12.3206
12.3394
12.3556
12.3689
12.3788
12.3849
12.3867
12.3839
12.3765
12.3641
12.3472
12.326
12.2986
12.2614
11.9771
11.9404
11.914
11.894
11.8775
11.8646
11.8551
11.8486
11.8448
11.8436
11.8447
11.8478
11.853
11.86
11.8687
11.8791
11.8911
11.9046
11.9195
11.9357
11.9532
11.9719
11.9918
12.0126
12.0344
12.0571
12.0805
12.1047
12.1294
12.1545
12.1798
12.2052
12.2305
12.2553
12.2794
12.3024
12.3239
12.3435
12.3607
12.375
12.3859
12.3929
12.3957
12.3937
12.3869
12.3751
12.3583
12.3372
12.3095
12.2715
11.9597
11.9225
11.896
11.876
11.8598
11.8474
11.8384
11.8326
11.8297
11.8293
11.8313
11.8354
11.8414
11.8494
11.859
11.8702
11.883
11.8973
11.9129
11.9297
11.9478
11.9671
11.9874
12.0088
12.031
12.0542
12.0781
12.1026
12.1278
12.1534
12.1793
12.2053
12.2312
12.2568
12.2818
12.3058
12.3284
12.3491
12.3676
12.3832
12.3955
12.4038
12.4078
12.407
12.4012
12.39
12.3736
12.3525
12.3244
12.2855
11.9376
11.8998
11.8731
11.8533
11.8374
11.8256
11.8174
11.8126
11.8108
11.8115
11.8147
11.82
11.8272
11.8363
11.8471
11.8594
11.8732
11.8883
11.9048
11.9225
11.9413
11.9613
11.9823
12.0042
12.027
12.0507
12.0751
12.1002
12.1259
12.1521
12.1786
12.2054
12.2322
12.2587
12.2848
12.31
12.3339
12.3562
12.3763
12.3936
12.4076
12.4177
12.4234
12.4241
12.4194
12.4092
12.3934
12.3723
12.3437
12.3035
11.9106
11.8721
11.8451
11.8254
11.8101
11.7991
11.792
11.7884
11.788
11.7902
11.7949
11.8017
11.8105
11.821
11.8331
11.8467
11.8617
11.878
11.8955
11.9142
11.9339
11.9546
11.9763
11.9989
12.0224
12.0467
12.0717
12.0974
12.1238
12.1507
12.178
12.2056
12.2334
12.261
12.2884
12.315
12.3406
12.3647
12.3867
12.4062
12.4224
12.4347
12.4424
12.4451
12.4421
12.4331
12.418
12.3971
12.3679
12.3262
11.8785
11.8389
11.8116
11.7921
11.7775
11.7676
11.7619
11.76
11.7614
11.7655
11.7721
11.7808
11.7913
11.8036
11.8174
11.8326
11.849
11.8666
11.8853
11.905
11.9257
11.9474
11.9699
11.9932
12.0174
12.0424
12.068
12.0944
12.1215
12.1492
12.1773
12.2059
12.2348
12.2638
12.2926
12.3209
12.3484
12.3747
12.3991
12.4211
12.4399
12.4549
12.4653
12.4704
12.4695
12.4621
12.448
12.4274
12.3975
12.354
11.8407
11.7997
11.772
11.753
11.7394
11.7309
11.7271
11.7273
11.7309
11.7374
11.7463
11.7573
11.7701
11.7845
11.8002
11.8171
11.8352
11.8543
11.8743
11.8953
11.9171
11.9397
11.9631
11.9873
12.0122
12.0378
12.0642
12.0914
12.1192
12.1477
12.1768
12.2064
12.2366
12.2669
12.2974
12.3277
12.3574
12.3861
12.4133
12.4383
12.4604
12.4787
12.4923
12.5005
12.5022
12.4969
12.4842
12.4641
12.4335
12.3877
11.7967
11.754
11.7258
11.7073
11.6951
11.6886
11.6872
11.6902
11.6967
11.7061
11.7179
11.7317
11.7471
11.7639
11.7818
11.8008
11.8207
11.8415
11.863
11.8852
11.9082
11.9318
11.9562
11.9812
12.0069
12.0333
12.0604
12.0883
12.1169
12.1463
12.1764
12.2072
12.2386
12.2706
12.3029
12.3353
12.3675
12.3991
12.4294
12.4579
12.4838
12.506
12.5237
12.5356
12.5408
12.5383
12.5274
12.508
12.4767
12.4282
11.7458
11.7007
11.672
11.6545
11.6441
11.6403
11.6421
11.6486
11.6588
11.6718
11.6871
11.7042
11.7227
11.7423
11.7628
11.784
11.806
11.8285
11.8516
11.8752
11.8994
11.9241
11.9494
11.9752
12.0017
12.0289
12.0567
12.0853
12.1148
12.145
12.1761
12.2081
12.2409
12.2746
12.3089
12.3436
12.3786
12.4134
12.4474
12.48
12.5103
12.5372
12.5597
12.5764
12.586
12.587
12.5787
12.5605
12.5285
12.4769
11.6868
11.6388
11.6096
11.5934
11.5857
11.5855
11.5916
11.6026
11.6173
11.6348
11.6544
11.6754
11.6974
11.7202
11.7435
11.7673
11.7914
11.8158
11.8405
11.8656
11.891
11.9168
11.943
11.9697
11.9969
12.0248
12.0533
12.0827
12.1128
12.144
12.1761
12.2093
12.2436
12.2789
12.3153
12.3526
12.3906
12.4289
12.467
12.5043
12.5398
12.5724
12.6008
12.6234
12.6385
12.6443
12.6395
12.6232
12.5905
12.5351
11.6183
11.5664
11.5368
11.5227
11.5189
11.5236
11.5353
11.5522
11.5726
11.5956
11.6202
11.6457
11.6718
11.6982
11.7246
11.7511
11.7775
11.8039
11.8303
11.8568
11.8834
11.9102
11.9373
11.9647
11.9926
12.0211
12.0503
12.0803
12.1112
12.1432
12.1763
12.2107
12.2464
12.2836
12.3222
12.3621
12.4033
12.4455
12.4882
12.5307
12.5722
12.6115
12.6471
12.677
12.6993
12.7114
12.7115
12.698
12.665
12.605
11.5381
11.4812
11.4515
11.4409
11.4425
11.4541
11.4732
11.4976
11.5252
11.5548
11.5853
11.6161
11.6468
11.6771
11.7068
11.7361
11.7649
11.7932
11.8213
11.8491
11.8768
11.9046
11.9324
11.9606
11.9891
12.0182
12.0479
12.0785
12.11
12.1427
12.1767
12.2122
12.2494
12.2883
12.3291
12.3719
12.4165
12.4628
12.5105
12.559
12.6074
12.6545
12.6987
12.7378
12.7692
12.7898
12.7968
12.7877
12.7549
12.6894
11.4432
11.38
11.3509
11.3457
11.3554
11.3764
11.4054
11.4393
11.4758
11.5133
11.5507
11.5875
11.6232
11.6576
11.6909
11.723
11.7541
11.7844
11.814
11.8431
11.8718
11.9003
11.9288
11.9575
11.9865
12.0159
12.0461
12.0771
12.1092
12.1425
12.1773
12.2138
12.2523
12.2929
12.3359
12.3815
12.4296
12.4803
12.5334
12.5885
12.6448
12.7011
12.7556
12.8061
12.8493
12.8812
12.8981
12.8957
12.8642
12.792
11.3288
11.2576
11.2308
11.2345
11.2561
11.2902
11.3322
11.3782
11.4255
11.4724
11.5177
11.561
11.602
11.6409
11.6776
11.7126
11.7459
11.7779
11.8088
11.8389
11.8684
11.8976
11.9265
11.9556
11.9848
12.0146
12.045
12.0762
12.1087
12.1425
12.1779
12.2153
12.255
12.2972
12.3422
12.3905
12.4421
12.4973
12.5562
12.6184
12.6834
12.7503
12.8173
12.8818
12.9402
12.9876
13.0185
13.0267
12.9986
12.9185
11.1876
11.1071
11.0859
11.1039
11.1431
11.1954
11.2545
11.3158
11.3761
11.4337
11.4878
11.5381
11.5847
11.6279
11.668
11.7055
11.7408
11.7742
11.8062
11.8371
11.8671
11.8966
11.9258
11.9549
11.9843
12.014
12.0445
12.0759
12.1084
12.1425
12.1784
12.2165
12.2571
12.3006
12.3475
12.3983
12.4533
12.513
12.5777
12.6475
12.7222
12.801
12.8826
12.9644
13.0424
13.1107
13.1619
13.187
13.1661
13.0771
11.0077
10.9173
10.9085
10.9501
11.0154
11.0928
11.1743
11.2543
11.3299
11.3995
11.463
11.5205
11.5726
11.6198
11.6629
11.7026
11.7394
11.7738
11.8065
11.8378
11.868
11.8975
11.9266
11.9556
11.9848
12.0144
12.0446
12.0759
12.1084
12.1425
12.1785
12.2169
12.2582
12.3027
12.3512
12.4041
12.4622
12.5261
12.5966
12.6741
12.7589
12.8511
12.9496
13.0524
13.1554
13.2519
13.3327
13.3846
13.3788
13.2814
10.7679
10.672
10.6891
10.7693
10.8733
10.9851
11.0949
11.1975
11.2902
11.3729
11.4459
11.5102
11.5672
11.6178
11.6632
11.7044
11.7421
11.7771
11.8099
11.8411
11.8711
11.9003
11.929
11.9576
11.9863
12.0154
12.0452
12.0761
12.1082
12.142
12.178
12.2164
12.2579
12.303
12.3525
12.407
12.4676
12.5352
12.6109
12.6959
12.7911
12.8973
13.0148
13.1424
13.2769
13.4115
13.5351
13.6302
13.6543
13.5543
10.4294
10.3458
10.4162
10.5595
10.72
10.8775
11.0224
11.1506
11.2618
11.3573
11.4391
11.5093
11.57
11.623
11.6698
11.7115
11.7494
11.7841
11.8165
11.8471
11.8765
11.9049
11.9329
11.9607
11.9886
12.017
12.0461
12.0762
12.1077
12.141
12.1763
12.2144
12.2556
12.3008
12.3506
12.406
12.4683
12.5386
12.6185
12.71
12.8148
12.9352
13.0728
13.2286
13.4015
13.5862
13.7717
13.9358
14.0195
13.9375
9.92049
9.90121
10.0785
10.3235
10.5643
10.7803
10.9659
11.1215
11.2505
11.3573
11.4459
11.52
11.5827
11.6364
11.6831
11.7243
11.7613
11.795
11.8263
11.8558
11.8839
11.9112
11.9381
11.9648
11.9916
12.0189
12.047
12.0761
12.1066
12.1389
12.1733
12.2105
12.2509
12.2954
12.3447
12.4
12.4627
12.5343
12.6168
12.7129
12.8256
12.9585
13.1158
13.3015
13.5187
13.7671
14.0396
14.3135
14.5132
14.5064
9.11054
9.28835
9.66859
10.0709
10.4216
10.7085
10.9377
11.119
11.2625
11.3767
11.4687
11.5437
11.6059
11.6584
11.7033
11.7427
11.7777
11.8095
11.839
11.8667
11.8932
11.9189
11.9442
11.9695
11.995
12.0209
12.0477
12.0755
12.1047
12.1356
12.1687
12.2044
12.2434
12.2864
12.3343
12.3883
12.4498
12.5208
12.6036
12.7015
12.8187
12.9606
13.1342
13.3482
13.6128
13.9379
14.3286
14.7709
15.1866
15.3952
7.70292
8.46691
9.21074
9.83515
10.3228
10.6861
10.954
11.1533
11.3036
11.419
11.5092
11.5811
11.6397
11.6885
11.7299
11.7659
11.7979
11.827
11.8539
11.8793
11.9037
11.9274
11.951
11.9745
11.9983
12.0227
12.0479
12.0741
12.1016
12.1308
12.1621
12.1959
12.2328
12.2735
12.319
12.3703
12.429
12.4971
12.5772
12.673
12.7895
12.9339
13.1163
13.3509
13.658
14.0654
14.603
15.2813
16.0794
16.9084
4.86795
7.46782
8.88611
9.77053
10.3753
10.783
11.0592
11.2523
11.3919
11.4958
11.5753
11.6378
11.6882
11.7299
11.7652
11.796
11.8234
11.8485
11.872
11.8943
11.9159
11.9372
11.9584
11.9798
12.0016
12.024
12.0471
12.0713
12.0968
12.1238
12.1526
12.1837
12.2176
12.2549
12.2964
12.3431
12.3965
12.4584
12.5312
12.6186
12.7256
12.8599
13.0332
13.2638
13.5823
14.0389
14.7033
15.6602
17.164
19.8815
1.53937e-05
6.38534
9.05063
10.1472
10.741
11.0919
11.3074
11.4493
11.5488
11.622
11.6779
11.7219
11.7577
11.7875
11.8133
11.8361
11.8569
11.8763
11.8949
11.913
11.9309
11.9489
11.9671
11.9857
12.0048
12.0246
12.0452
12.0667
12.0893
12.1132
12.1387
12.166
12.1956
12.2278
12.2633
12.3029
12.3476
12.3987
12.4581
12.5283
12.6132
12.7186
12.8537
13.0351
13.2947
13.6966
14.3573
15.5485
18.3299
24.8394
)
;

boundaryField
{
    movingWallTop
    {
        type            zeroGradient;
    }
    movingWallBottom
    {
        type            zeroGradient;
    }
    fixedWalls
    {
        type            zeroGradient;
    }
    frontAndBack
    {
        type            empty;
    }
}


// ************************************************************************* //
