/*--------------------------------*- C++ -*----------------------------------*\
  =========                 |
  \\      /  F ield         | OpenFOAM: The Open Source CFD Toolbox
   \\    /   O peration     | Website:  https://openfoam.org
    \\  /    A nd           | Version:  7
     \\/     M anipulation  |
\*---------------------------------------------------------------------------*/
FoamFile
{
    version     2.0;
    format      ascii;
    class       surfaceScalarField;
    location    "0.0456";
    object      phi;
}
// * * * * * * * * * * * * * * * * * * * * * * * * * * * * * * * * * * * * * //

dimensions      [0 3 -1 0 0 0 0];

internalField   nonuniform List<scalar> 
4900
(
1.02913e-09
-1.0244e-09
2.03322e-09
-1.00408e-09
1.99138e-09
4.18223e-11
5.72046e-10
1.41935e-09
-2.2908e-09
2.86284e-09
-6.51153e-09
4.22072e-09
-1.1934e-08
5.42251e-09
-1.83724e-08
6.43838e-09
-2.56309e-08
7.25849e-09
-3.35138e-08
7.88289e-09
-4.18308e-08
8.31702e-09
-5.04002e-08
8.5694e-09
-5.90505e-08
8.65034e-09
-6.76217e-08
8.57122e-09
-7.59657e-08
8.34398e-09
-8.39465e-08
7.98083e-09
-9.14406e-08
7.49407e-09
-9.83366e-08
6.89599e-09
-1.04535e-07
6.19878e-09
-1.0995e-07
5.41459e-09
-1.14505e-07
4.55551e-09
-1.18139e-07
3.63362e-09
-1.208e-07
2.66111e-09
-1.2245e-07
1.6503e-09
-1.23064e-07
6.13751e-10
-1.22629e-07
-4.35649e-10
-1.21144e-07
-1.48465e-09
-1.18624e-07
-2.51957e-09
-1.15098e-07
-3.52628e-09
-1.10608e-07
-4.49021e-09
-1.05211e-07
-5.3964e-09
-9.89819e-08
-6.22956e-09
-9.20077e-08
-6.9742e-09
-8.4393e-08
-7.61477e-09
-7.62571e-08
-8.13585e-09
-6.77347e-08
-8.52241e-09
-5.89747e-08
-8.76004e-09
-5.01394e-08
-8.83526e-09
-4.14035e-08
-8.73592e-09
-3.2952e-08
-8.45157e-09
-2.4978e-08
-7.97401e-09
-1.76799e-08
-7.29808e-09
-1.1257e-08
-6.42291e-09
-5.90295e-09
-5.35405e-09
-1.79496e-09
-4.10799e-09
9.27091e-10
-2.72205e-09
2.19993e-09
-1.27285e-09
2.10499e-09
9.4913e-11
1.02839e-09
1.07654e-09
1.02833e-09
1.01993e-09
-2.04432e-09
9.92897e-10
-9.77091e-10
-1.52668e-09
2.56139e-09
-7.22759e-09
7.1203e-09
-1.62889e-08
1.19241e-08
-2.85908e-08
1.65226e-08
-4.38333e-08
2.0665e-08
-6.16142e-08
2.42193e-08
-8.14786e-08
2.71229e-08
-1.0295e-07
2.93541e-08
-1.25549e-07
3.09162e-08
-1.48808e-07
3.18284e-08
-1.72277e-07
3.21198e-08
-1.95532e-07
3.18259e-08
-2.18175e-07
3.09864e-08
-2.39837e-07
2.96434e-08
-2.60183e-07
2.78404e-08
-2.78909e-07
2.56217e-08
-2.95743e-07
2.30323e-08
-3.10445e-07
2.01171e-08
-3.22811e-07
1.69213e-08
-3.32668e-07
1.34905e-08
-3.39877e-07
9.8707e-09
-3.44336e-07
6.1086e-09
-3.45974e-07
2.25177e-09
-3.44758e-07
-1.65108e-09
-3.40693e-07
-5.54995e-09
-3.33819e-07
-9.39339e-09
-3.24217e-07
-1.31285e-08
-3.12006e-07
-1.67011e-08
-2.97347e-07
-2.00556e-08
-2.80441e-07
-2.31357e-08
-2.6153e-07
-2.58848e-08
-2.40899e-07
-2.82462e-08
-2.1887e-07
-3.01644e-08
-1.95806e-07
-3.1586e-08
-1.72106e-07
-3.24604e-08
-1.482e-07
-3.27414e-08
-1.24547e-07
-3.23889e-08
-1.01628e-07
-3.13707e-08
-7.9937e-08
-2.96649e-08
-5.99712e-08
-2.72639e-08
-4.22148e-08
-2.41793e-08
-2.71175e-08
-2.04514e-08
-1.50622e-08
-1.61632e-08
-6.31616e-09
-1.14681e-08
-9.53002e-10
-6.63598e-09
1.27362e-09
-2.13163e-09
1.08677e-09
1.26348e-09
2.11506e-09
1.11592e-11
-2.05549e-09
-2.45737e-09
1.49144e-09
-8.82347e-09
8.92749e-09
-1.97693e-08
1.80662e-08
-3.54826e-08
2.76374e-08
-5.58041e-08
3.68441e-08
-8.03369e-08
4.51978e-08
-1.08533e-07
5.24157e-08
-1.39756e-07
5.83459e-08
-1.73323e-07
6.29208e-08
-2.08535e-07
6.61281e-08
-2.44699e-07
6.79924e-08
-2.81142e-07
6.85632e-08
-3.17223e-07
6.79063e-08
-3.52335e-07
6.60988e-08
-3.85917e-07
6.3225e-08
-4.1745e-07
5.93743e-08
-4.46467e-07
5.46386e-08
-4.72547e-07
4.91121e-08
-4.9532e-07
4.289e-08
-5.14468e-07
3.60689e-08
-5.29723e-07
2.87461e-08
-5.40873e-07
2.10205e-08
-5.47757e-07
1.29923e-08
-5.50269e-07
4.76385e-09
-5.4836e-07
-3.56017e-09
-5.42037e-07
-1.18725e-08
-5.31368e-07
-2.0063e-08
-5.16477e-07
-2.80189e-08
-4.97554e-07
-3.56246e-08
-4.74847e-07
-4.27626e-08
-4.48669e-07
-4.93138e-08
-4.19395e-07
-5.51589e-08
-3.87461e-07
-6.01798e-08
-3.53364e-07
-6.42611e-08
-3.17658e-07
-6.72924e-08
-2.80947e-07
-6.9171e-08
-2.43884e-07
-6.98045e-08
-2.07159e-07
-6.91148e-08
-1.71487e-07
-6.70427e-08
-1.37598e-07
-6.35533e-08
-1.06217e-07
-5.86447e-08
-7.8038e-08
-5.23587e-08
-5.3691e-08
-4.47984e-08
-3.36992e-08
-3.61551e-08
-1.84153e-08
-2.6752e-08
-7.93727e-09
-1.71141e-08
-2.00149e-09
-8.06746e-09
1.56421e-10
-8.94393e-10
2.27147e-09
-1.31935e-09
-7.36134e-10
-6.93988e-09
7.112e-09
-1.78883e-08
1.98759e-08
-3.46706e-08
3.48485e-08
-5.73707e-08
5.03375e-08
-8.57378e-08
6.52111e-08
-1.19274e-07
7.87336e-08
-1.57309e-07
9.04506e-08
-1.99062e-07
1.001e-07
-2.43691e-07
1.0755e-07
-2.90324e-07
1.12761e-07
-3.38089e-07
1.15757e-07
-3.86133e-07
1.16607e-07
-4.33635e-07
1.15408e-07
-4.79819e-07
1.12282e-07
-5.23958e-07
1.07365e-07
-5.65384e-07
1.008e-07
-6.03488e-07
9.27422e-08
-6.37723e-07
8.33468e-08
-6.67607e-07
7.27744e-08
-6.92726e-07
6.11877e-08
-7.12732e-07
4.87519e-08
-7.27346e-07
3.56346e-08
-7.3636e-07
2.20067e-08
-7.39638e-07
8.042e-09
-7.37117e-07
-6.08145e-09
-7.28808e-07
-2.01815e-08
-7.148e-07
-3.40713e-08
-6.95259e-07
-4.756e-08
-6.70431e-07
-6.04525e-08
-6.40643e-07
-7.25508e-08
-6.06301e-07
-8.36551e-08
-5.67894e-07
-9.3566e-08
-5.25987e-07
-1.02087e-07
-4.81223e-07
-1.09026e-07
-4.34313e-07
-1.14202e-07
-3.86036e-07
-1.17448e-07
-3.37225e-07
-1.18615e-07
-2.88759e-07
-1.17581e-07
-2.41543e-07
-1.14258e-07
-1.96497e-07
-1.086e-07
-1.54523e-07
-1.00619e-07
-1.1648e-07
-9.04015e-08
-8.31436e-08
-7.81348e-08
-5.51561e-08
-6.41426e-08
-3.29659e-08
-4.89422e-08
-1.6753e-08
-3.33269e-08
-6.34648e-09
-1.84741e-08
-1.14444e-09
-6.09643e-09
1.12703e-09
-2.74506e-09
2.00893e-09
-1.17859e-08
1.61529e-08
-2.76683e-08
3.57583e-08
-5.06074e-08
5.77876e-08
-8.0493e-08
8.0223e-08
-1.1693e-07
1.01648e-07
-1.59295e-07
1.21099e-07
-2.06796e-07
1.37952e-07
-2.58524e-07
1.51828e-07
-3.13499e-07
1.62525e-07
-3.70707e-07
1.69969e-07
-4.29127e-07
1.74178e-07
-4.87757e-07
1.75237e-07
-5.4563e-07
1.73282e-07
-6.01827e-07
1.68479e-07
-6.55485e-07
1.61022e-07
-7.05806e-07
1.51122e-07
-7.52065e-07
1.39001e-07
-7.93607e-07
1.24889e-07
-8.29857e-07
1.09024e-07
-8.60316e-07
9.16471e-08
-8.84569e-07
7.30048e-08
-9.02282e-07
5.33476e-08
-9.13206e-07
3.29304e-08
-9.17177e-07
1.20135e-08
-9.14122e-07
-9.13707e-09
-9.04054e-07
-3.02491e-08
-8.87081e-07
-5.10441e-08
-8.63404e-07
-7.12375e-08
-8.33317e-07
-9.05394e-08
-7.97212e-07
-1.08656e-07
-7.55576e-07
-1.25291e-07
-7.08991e-07
-1.40151e-07
-6.58132e-07
-1.52946e-07
-6.03762e-07
-1.63395e-07
-5.46729e-07
-1.71235e-07
-4.87953e-07
-1.76224e-07
-4.2842e-07
-1.78148e-07
-3.69164e-07
-1.76838e-07
-3.11249e-07
-1.72172e-07
-2.5575e-07
-1.64099e-07
-2.03721e-07
-1.52648e-07
-1.56163e-07
-1.3796e-07
-1.13983e-07
-1.20315e-07
-7.79468e-08
-1.00179e-07
-4.86238e-08
-7.82651e-08
-2.63311e-08
-5.56196e-08
-1.10782e-08
-3.3727e-08
-2.53008e-09
-1.46446e-08
-1.40304e-09
-4.14145e-09
6.15039e-09
-1.66532e-08
2.86646e-08
-3.75866e-08
5.66917e-08
-6.68118e-08
8.70128e-08
-1.0397e-07
1.17381e-07
-1.48477e-07
1.46156e-07
-1.99559e-07
1.72181e-07
-2.56287e-07
1.9468e-07
-3.17624e-07
2.13164e-07
-3.82462e-07
2.27363e-07
-4.49659e-07
2.37166e-07
-5.18067e-07
2.42586e-07
-5.86558e-07
2.43728e-07
-6.54039e-07
2.40762e-07
-7.19469e-07
2.33909e-07
-7.81872e-07
2.23425e-07
-8.40342e-07
2.09593e-07
-8.94053e-07
1.92712e-07
-9.42262e-07
1.73098e-07
-9.84312e-07
1.51074e-07
-1.01964e-06
1.26971e-07
-1.04776e-06
1.01127e-07
-1.0683e-06
7.38885e-08
-1.08097e-06
4.56054e-08
-1.0856e-06
1.66367e-08
-1.08208e-06
-1.26512e-08
-1.07045e-06
-4.18835e-08
-1.05082e-06
-7.06771e-08
-1.02341e-06
-9.86409e-08
-9.88575e-07
-1.25377e-07
-9.46748e-07
-1.50483e-07
-8.98486e-07
-1.73554e-07
-8.44449e-07
-1.94188e-07
-7.85404e-07
-2.11991e-07
-7.22217e-07
-2.26582e-07
-6.55848e-07
-2.37605e-07
-5.87339e-07
-2.44733e-07
-5.17803e-07
-2.47684e-07
-4.48409e-07
-2.46232e-07
-3.80359e-07
-2.40222e-07
-3.14864e-07
-2.29594e-07
-2.53115e-07
-2.14397e-07
-1.96247e-07
-1.94827e-07
-1.45302e-07
-1.7126e-07
-1.01183e-07
-1.44298e-07
-6.46115e-08
-1.14837e-07
-3.60851e-08
-8.4146e-08
-1.58495e-08
-5.39626e-08
-3.89355e-09
-2.66005e-08
-5.29659e-09
-5.46938e-09
1.16197e-08
-2.1392e-08
4.45872e-08
-4.73592e-08
8.26589e-08
-8.28826e-08
1.22536e-07
-1.27325e-07
1.61823e-07
-1.79884e-07
1.98715e-07
-2.39606e-07
2.31903e-07
-3.05412e-07
2.60485e-07
-3.76126e-07
2.83878e-07
-4.50515e-07
3.01751e-07
-5.27315e-07
3.13966e-07
-6.05261e-07
3.20532e-07
-6.83111e-07
3.21578e-07
-7.59662e-07
3.17314e-07
-8.33772e-07
3.08018e-07
-9.04364e-07
2.94017e-07
-9.70441e-07
2.7567e-07
-1.03109e-06
2.53364e-07
-1.0855e-06
2.27504e-07
-1.13293e-06
1.9851e-07
-1.17277e-06
1.66811e-07
-1.20449e-06
1.32847e-07
-1.22767e-06
9.70671e-08
-1.242e-06
5.99282e-08
-1.24726e-06
2.18974e-08
-1.24336e-06
-1.65482e-08
-1.23032e-06
-5.49208e-08
-1.20828e-06
-9.27221e-08
-1.17747e-06
-1.29444e-07
-1.13828e-06
-1.64569e-07
-1.09119e-06
-1.97575e-07
-1.03681e-06
-2.27937e-07
-9.75858e-07
-2.55136e-07
-9.09188e-07
-2.78661e-07
-8.37749e-07
-2.98022e-07
-7.62596e-07
-3.12758e-07
-6.84878e-07
-3.22451e-07
-6.0582e-07
-3.26741e-07
-5.26711e-07
-3.25341e-07
-4.48875e-07
-3.18058e-07
-3.73654e-07
-3.04815e-07
-3.0237e-07
-2.85681e-07
-2.36296e-07
-2.60901e-07
-1.76618e-07
-2.30938e-07
-1.24396e-07
-1.9652e-07
-8.05295e-08
-1.58703e-07
-4.57299e-08
-1.18946e-07
-2.05085e-08
-7.9184e-08
-5.19321e-09
-4.19158e-08
-1.04898e-08
-6.7241e-09
1.83438e-08
-2.5958e-08
6.38211e-08
-5.68817e-08
1.13583e-07
-9.86566e-08
1.64311e-07
-1.50356e-07
2.13522e-07
-2.10939e-07
2.59298e-07
-2.79254e-07
3.00218e-07
-3.54052e-07
3.35283e-07
-4.34011e-07
3.63838e-07
-5.17766e-07
3.85506e-07
-6.0393e-07
4.0013e-07
-6.91127e-07
4.0773e-07
-7.78009e-07
4.08459e-07
-8.63274e-07
4.02579e-07
-9.45686e-07
3.9043e-07
-1.02408e-06
3.72414e-07
-1.09739e-06
3.48976e-07
-1.16462e-06
3.20596e-07
-1.2249e-06
2.87778e-07
-1.27743e-06
2.51042e-07
-1.32154e-06
2.10926e-07
-1.35668e-06
1.67979e-07
-1.38237e-06
1.2276e-07
-1.39828e-06
7.58408e-08
-1.40419e-06
2.78052e-08
-1.39999e-06
-2.07511e-08
-1.38569e-06
-6.92187e-08
-1.36143e-06
-1.16975e-07
-1.32749e-06
-1.63386e-07
-1.28425e-06
-2.07807e-07
-1.23224e-06
-2.49585e-07
-1.17211e-06
-2.88067e-07
-1.10465e-06
-3.22603e-07
-1.03075e-06
-3.52559e-07
-9.51446e-07
-3.77324e-07
-8.6788e-07
-3.96324e-07
-7.81291e-07
-4.09041e-07
-6.93006e-07
-4.15025e-07
-6.04425e-07
-4.13922e-07
-5.16992e-07
-4.05491e-07
-4.32174e-07
-3.89633e-07
-3.51428e-07
-3.66426e-07
-2.76174e-07
-3.36156e-07
-2.07754e-07
-2.99358e-07
-1.47405e-07
-2.56869e-07
-9.62271e-08
-2.09881e-07
-5.51663e-08
-1.60006e-07
-2.50122e-08
-1.09338e-07
-6.42355e-09
-6.05045e-08
-1.69134e-08
-7.91592e-09
2.62598e-08
-3.03607e-08
8.62659e-08
-6.61504e-08
1.49372e-07
-1.14114e-07
2.12275e-07
-1.73034e-07
2.72442e-07
-2.41621e-07
3.27885e-07
-3.18509e-07
3.77106e-07
-4.02267e-07
4.19041e-07
-4.91414e-07
4.52985e-07
-5.84443e-07
4.78535e-07
-6.79846e-07
4.95533e-07
-7.76132e-07
5.04016e-07
-8.7185e-07
5.04178e-07
-9.65608e-07
4.96337e-07
-1.05608e-06
4.80906e-07
-1.14204e-06
4.58369e-07
-1.22233e-06
4.29264e-07
-1.2959e-06
3.94171e-07
-1.36182e-06
3.53699e-07
-1.41926e-06
3.08479e-07
-1.46749e-06
2.59161e-07
-1.50592e-06
2.06408e-07
-1.53406e-06
1.50898e-07
-1.55154e-06
9.33234e-08
-1.55813e-06
3.43905e-08
-1.5537e-06
-2.51794e-08
-1.53827e-06
-8.46491e-08
-1.51198e-06
-1.43265e-07
-1.47511e-06
-2.0026e-07
-1.42806e-06
-2.54851e-07
-1.3714e-06
-3.06251e-07
-1.3058e-06
-3.53666e-07
-1.23209e-06
-3.9631e-07
-1.15124e-06
-4.33412e-07
-1.06433e-06
-4.64233e-07
-9.7258e-07
-4.88075e-07
-8.77314e-07
-5.04307e-07
-7.79956e-07
-5.12383e-07
-6.82012e-07
-5.11867e-07
-5.85044e-07
-5.02459e-07
-4.90648e-07
-4.8403e-07
-4.00424e-07
-4.5665e-07
-3.15947e-07
-4.20632e-07
-2.38734e-07
-3.76571e-07
-1.70214e-07
-3.25389e-07
-1.11706e-07
-2.6839e-07
-6.44026e-08
-2.0731e-07
-2.93752e-08
-1.44365e-07
-7.59586e-09
-8.22839e-08
-2.45092e-08
-9.06054e-09
3.53203e-08
-3.46355e-08
1.11841e-07
-7.52159e-08
1.89953e-07
-1.29317e-07
2.66376e-07
-1.95436e-07
3.3856e-07
-2.72026e-07
4.04475e-07
-3.575e-07
4.6258e-07
-4.5023e-07
5.11771e-07
-5.48566e-07
5.51321e-07
-6.50854e-07
5.80823e-07
-7.55453e-07
6.00132e-07
-8.60759e-07
6.09322e-07
-9.65221e-07
6.08639e-07
-1.06735e-06
5.9847e-07
-1.16576e-06
5.7931e-07
-1.25912e-06
5.51734e-07
-1.34624e-06
5.16384e-07
-1.42602e-06
4.73944e-07
-1.49745e-06
4.25136e-07
-1.55968e-06
3.70707e-07
-1.61194e-06
3.11425e-07
-1.65361e-06
2.48074e-07
-1.68417e-06
1.81456e-07
-1.70323e-06
1.12388e-07
-1.71055e-06
4.17025e-08
-1.70598e-06
-2.97477e-08
-1.68953e-06
-1.01092e-07
-1.66136e-06
-1.71442e-07
-1.62173e-06
-2.39889e-07
-1.57107e-06
-3.05509e-07
-1.50995e-06
-3.67369e-07
-1.43909e-06
-4.2453e-07
-1.35934e-06
-4.76059e-07
-1.27171e-06
-5.21041e-07
-1.17735e-06
-5.58593e-07
-1.07754e-06
-5.87885e-07
-9.73681e-07
-6.08163e-07
-8.67297e-07
-6.18767e-07
-7.59995e-07
-6.19169e-07
-6.53457e-07
-6.08997e-07
-5.49416e-07
-5.88071e-07
-4.49622e-07
-5.56443e-07
-3.5582e-07
-5.14435e-07
-2.69714e-07
-4.62678e-07
-1.92942e-07
-4.02161e-07
-1.27057e-07
-3.34275e-07
-7.35062e-08
-2.6086e-07
-3.36406e-08
-1.84231e-07
-8.72793e-09
-1.07197e-07
-3.32371e-08
-1.0175e-08
4.54953e-08
-3.88285e-08
1.40494e-07
-8.41551e-08
2.35279e-07
-1.44373e-07
3.26594e-07
-2.17696e-07
4.11883e-07
-3.02321e-07
4.89101e-07
-3.96428e-07
5.56687e-07
-4.98184e-07
6.13527e-07
-6.05761e-07
6.58898e-07
-7.17346e-07
6.92408e-07
-8.31163e-07
7.1395e-07
-9.4549e-07
7.23649e-07
-1.05867e-06
7.21822e-07
-1.16914e-06
7.08937e-07
-1.27541e-06
6.85584e-07
-1.37612e-06
6.5244e-07
-1.46999e-06
6.10257e-07
-1.55589e-06
5.59836e-07
-1.63277e-06
5.02016e-07
-1.69973e-06
4.37666e-07
-1.75598e-06
3.67678e-07
-1.80087e-06
2.92961e-07
-1.83385e-06
2.14443e-07
-1.85453e-06
1.3307e-07
-1.86264e-06
4.9806e-08
-1.85802e-06
-3.43637e-08
-1.84068e-06
-1.18432e-07
-1.81076e-06
-2.01368e-07
-1.76852e-06
-2.82122e-07
-1.71441e-06
-3.59621e-07
-1.649e-06
-4.3278e-07
-1.57303e-06
-5.00506e-07
-1.48737e-06
-5.61712e-07
-1.39309e-06
-6.15328e-07
-1.29136e-06
-6.60318e-07
-1.18354e-06
-6.95706e-07
-1.0711e-06
-7.20598e-07
-9.55662e-07
-7.3421e-07
-8.38929e-07
-7.35902e-07
-7.22713e-07
-7.25212e-07
-6.08888e-07
-7.01896e-07
-4.99368e-07
-6.65963e-07
-3.96079e-07
-6.17724e-07
-3.00927e-07
-5.57829e-07
-2.15776e-07
-4.87312e-07
-1.42421e-07
-4.0763e-07
-8.25754e-08
-3.20706e-07
-3.78649e-08
-2.28942e-07
-9.83962e-09
-1.35222e-07
-4.30768e-08
-1.1276e-08
5.67713e-08
-4.29893e-08
1.72208e-07
-9.30561e-08
2.85346e-07
-1.59407e-07
3.92945e-07
-2.39979e-07
4.92454e-07
-3.32706e-07
5.81828e-07
-4.35531e-07
6.59511e-07
-5.46407e-07
7.24403e-07
-6.63316e-07
7.75807e-07
-7.84281e-07
8.13373e-07
-9.07385e-07
8.37053e-07
-1.03078e-06
8.47046e-07
-1.15272e-06
8.43755e-07
-1.27152e-06
8.27747e-07
-1.38566e-06
7.99718e-07
-1.49368e-06
7.60464e-07
-1.59428e-06
7.10855e-07
-1.68626e-06
6.51815e-07
-1.76855e-06
5.8431e-07
-1.84022e-06
5.09337e-07
-1.90046e-06
4.27914e-07
-1.94858e-06
3.4108e-07
-1.98403e-06
2.49892e-07
-2.00638e-06
1.55426e-07
-2.01536e-06
5.87795e-08
-2.01079e-06
-3.89269e-08
-1.99268e-06
-1.36548e-07
-1.96114e-06
-2.3291e-07
-1.91644e-06
-3.26815e-07
-1.85902e-06
-4.17039e-07
-1.78946e-06
-5.0234e-07
-1.7085e-06
-5.81465e-07
-1.61705e-06
-6.53162e-07
-1.51619e-06
-7.16195e-07
-1.40714e-06
-7.69366e-07
-1.29131e-06
-8.11535e-07
-1.17025e-06
-8.41655e-07
-1.04567e-06
-8.58798e-07
-9.19374e-07
-8.62194e-07
-7.93314e-07
-8.51272e-07
-6.69511e-07
-8.25699e-07
-5.50052e-07
-7.85422e-07
-4.37057e-07
-7.30719e-07
-3.32652e-07
-6.62234e-07
-2.38938e-07
-5.81026e-07
-1.57967e-07
-4.88601e-07
-9.17227e-08
-3.8695e-07
-4.21093e-08
-2.78555e-07
-1.09509e-08
-1.6638e-07
-5.40277e-08
-1.23789e-08
6.91502e-08
-4.71665e-08
2.06995e-07
-1.02009e-07
3.40188e-07
-1.74554e-07
4.65491e-07
-2.62459e-07
5.8036e-07
-3.63396e-07
6.82765e-07
-4.7506e-07
7.71175e-07
-5.95182e-07
8.44526e-07
-7.21548e-07
9.02173e-07
-8.52009e-07
9.43834e-07
-9.84499e-07
9.69543e-07
-1.11705e-06
9.79594e-07
-1.24779e-06
9.74497e-07
-1.37498e-06
9.54937e-07
-1.49699e-06
9.21734e-07
-1.61234e-06
8.75811e-07
-1.71966e-06
8.18171e-07
-1.81771e-06
7.49871e-07
-1.90541e-06
6.7201e-07
-1.9818e-06
5.85717e-07
-2.04602e-06
4.92143e-07
-2.0974e-06
3.92457e-07
-2.13536e-06
2.87848e-07
-2.15946e-06
1.79523e-07
-2.16939e-06
6.87125e-08
-2.16499e-06
-4.3328e-08
-2.14622e-06
-1.55314e-07
-2.11321e-06
-2.65928e-07
-2.0662e-06
-3.73822e-07
-2.00562e-06
-4.77619e-07
-1.93204e-06
-5.75914e-07
-1.84622e-06
-6.67287e-07
-1.74907e-06
-7.50313e-07
-1.64169e-06
-8.2358e-07
-1.52534e-06
-8.85711e-07
-1.40149e-06
-9.35392e-07
-1.27174e-06
-9.71401e-07
-1.13789e-06
-9.92648e-07
-1.00187e-06
-9.98211e-07
-8.65761e-07
-9.87383e-07
-7.3174e-07
-9.5972e-07
-6.02079e-07
-9.15083e-07
-4.79109e-07
-8.53689e-07
-3.65186e-07
-7.76157e-07
-2.62666e-07
-6.83546e-07
-1.73871e-07
-5.77396e-07
-1.01065e-07
-4.59756e-07
-4.64358e-08
-3.33184e-07
-1.20809e-08
-2.00735e-07
-6.61086e-08
-1.34979e-08
8.26481e-08
-5.14057e-08
2.44903e-07
-1.11099e-07
3.99881e-07
-1.89942e-07
5.44334e-07
-2.8531e-07
6.75727e-07
-3.94602e-07
7.92057e-07
-5.1526e-07
8.91833e-07
-6.44786e-07
9.74052e-07
-7.8076e-07
1.03815e-06
-9.20853e-07
1.08393e-06
-1.06285e-06
1.11154e-06
-1.20464e-06
1.12139e-06
-1.34426e-06
1.11412e-06
-1.47988e-06
1.09056e-06
-1.6098e-06
1.05166e-06
-1.73248e-06
9.98492e-07
-1.84652e-06
9.32206e-07
-1.95064e-06
8.53999e-07
-2.04375e-06
7.65112e-07
-2.12484e-06
6.66811e-07
-2.19308e-06
5.60382e-07
-2.24775e-06
4.47127e-07
-2.28827e-06
3.28366e-07
-2.31418e-06
2.05438e-07
-2.32517e-06
7.9703e-08
-2.32105e-06
-4.74478e-08
-2.30177e-06
-1.74592e-07
-2.26743e-06
-3.00271e-07
-2.21827e-06
-4.22986e-07
-2.15468e-06
-5.41202e-07
-2.07725e-06
-6.53351e-07
-1.9867e-06
-7.57837e-07
-1.88395e-06
-8.53057e-07
-1.77012e-06
-9.37409e-07
-1.64651e-06
-1.00933e-06
-1.5146e-06
-1.0673e-06
-1.37609e-06
-1.10991e-06
-1.23285e-06
-1.13589e-06
-1.08692e-06
-1.14413e-06
-9.40529e-07
-1.13378e-06
-7.96017e-07
-1.10423e-06
-6.55852e-07
-1.05525e-06
-5.22588e-07
-9.86954e-07
-3.98829e-07
-8.99915e-07
-2.87201e-07
-7.95174e-07
-1.90312e-07
-6.74286e-07
-1.10719e-07
-5.39349e-07
-5.09045e-08
-3.92999e-07
-1.32478e-08
-2.38392e-07
-7.93564e-08
-1.46453e-08
9.72934e-08
-5.57487e-08
2.86007e-07
-1.20407e-07
4.64539e-07
-2.05694e-07
6.2962e-07
-3.08692e-07
7.78726e-07
-4.26521e-07
9.09886e-07
-5.56359e-07
1.02167e-06
-6.9547e-07
1.11316e-06
-8.41218e-07
1.18389e-06
-9.91088e-07
1.2338e-06
-1.1427e-06
1.26315e-06
-1.29383e-06
1.27251e-06
-1.4424e-06
1.26268e-06
-1.58648e-06
1.23464e-06
-1.72432e-06
1.1895e-06
-1.85433e-06
1.1285e-06
-1.97507e-06
1.05294e-06
-2.08525e-06
9.64179e-07
-2.18373e-06
8.63597e-07
-2.26953e-06
7.52608e-07
-2.34178e-06
6.32635e-07
-2.39977e-06
5.05114e-07
-2.4429e-06
3.71495e-07
-2.47071e-06
2.33245e-07
-2.48286e-06
9.1854e-08
-2.47915e-06
-5.11573e-08
-2.45951e-06
-1.94232e-07
-2.42401e-06
-3.35769e-07
-2.37287e-06
-4.74124e-07
-2.30647e-06
-6.07604e-07
-2.22535e-06
-7.34471e-07
-2.13023e-06
-8.52954e-07
-2.02203e-06
-9.61258e-07
-1.90186e-06
-1.05758e-06
-1.77103e-06
-1.14016e-06
-1.63107e-06
-1.20725e-06
-1.48374e-06
-1.25725e-06
-1.33098e-06
-1.28865e-06
-1.17497e-06
-1.30015e-06
-1.01805e-06
-1.2907e-06
-8.62754e-07
-1.25953e-06
-7.11753e-07
-1.20625e-06
-5.67836e-07
-1.13087e-06
-4.33874e-07
-1.03388e-06
-3.12778e-07
-9.1627e-07
-2.07462e-07
-7.79603e-07
-1.20796e-07
-6.26014e-07
-5.5573e-08
-4.58222e-07
-1.44685e-08
-2.79496e-07
-9.3825e-08
-1.58325e-08
1.13126e-07
-6.02333e-08
3.30407e-07
-1.30006e-07
5.34313e-07
-2.2192e-07
7.21534e-07
-3.32754e-07
8.89559e-07
-4.59333e-07
1.03646e-06
-5.98562e-07
1.1609e-06
-7.47452e-07
1.26205e-06
-9.03147e-07
1.33959e-06
-1.06294e-06
1.39359e-06
-1.22429e-06
1.4245e-06
-1.38482e-06
1.43305e-06
-1.54237e-06
1.42023e-06
-1.69492e-06
1.38719e-06
-1.84067e-06
1.33525e-06
-1.97796e-06
1.2658e-06
-2.10535e-06
1.18033e-06
-2.22152e-06
1.08035e-06
-2.32534e-06
9.67412e-07
-2.4158e-06
8.43067e-07
-2.49204e-06
7.08882e-07
-2.55335e-06
5.66423e-07
-2.59913e-06
4.17271e-07
-2.6289e-06
2.63015e-07
-2.64231e-06
1.0527e-07
-2.63915e-06
-5.43179e-08
-2.61932e-06
-2.14062e-07
-2.58286e-06
-3.72228e-07
-2.52996e-06
-5.27023e-07
-2.46097e-06
-6.766e-07
-2.37639e-06
-8.19052e-07
-2.27692e-06
-9.52426e-07
-2.16345e-06
-1.07473e-06
-2.03708e-06
-1.18395e-06
-1.89914e-06
-1.2781e-06
-1.75118e-06
-1.35521e-06
-1.595e-06
-1.41342e-06
-1.43264e-06
-1.451e-06
-1.26638e-06
-1.46642e-06
-1.0987e-06
-1.45837e-06
-9.32322e-07
-1.42591e-06
-7.70132e-07
-1.36844e-06
-6.15172e-07
-1.28583e-06
-4.70594e-07
-1.17845e-06
-3.39619e-07
-1.04724e-06
-2.25486e-07
-8.93736e-07
-1.31403e-07
-7.20097e-07
-6.04954e-08
-5.29129e-07
-1.57589e-08
-3.24233e-07
-1.09584e-07
-1.70693e-08
1.30195e-07
-6.48934e-08
3.78232e-07
-1.39963e-07
6.09382e-07
-2.38722e-07
8.20293e-07
-3.57627e-07
1.00846e-06
-4.93196e-07
1.17203e-06
-6.42042e-07
1.30975e-06
-8.00914e-07
1.42093e-06
-9.66722e-07
1.5054e-06
-1.13656e-06
1.56343e-06
-1.30772e-06
1.59566e-06
-1.4777e-06
1.60304e-06
-1.64422e-06
1.58675e-06
-1.8052e-06
1.54817e-06
-1.95877e-06
1.48881e-06
-2.10326e-06
1.41029e-06
-2.23718e-06
1.31425e-06
-2.35924e-06
1.2024e-06
-2.46828e-06
1.07645e-06
-2.56331e-06
9.38101e-07
-2.64349e-06
7.8906e-07
-2.70809e-06
6.31027e-07
-2.75653e-06
4.65705e-07
-2.78832e-06
2.94803e-07
-2.8031e-06
1.20053e-07
-2.80063e-06
-5.6783e-08
-2.7808e-06
-2.33896e-07
-2.74361e-06
-4.09421e-07
-2.6892e-06
-5.81427e-07
-2.61789e-06
-7.47915e-07
-2.53013e-06
-9.06811e-07
-2.42658e-06
-1.05597e-06
-2.3081e-06
-1.19321e-06
-2.17576e-06
-1.31629e-06
-2.03088e-06
-1.42297e-06
-1.87504e-06
-1.51105e-06
-1.71006e-06
-1.5784e-06
-1.53806e-06
-1.623e-06
-1.36142e-06
-1.64306e-06
-1.18278e-06
-1.63701e-06
-1.00503e-06
-1.60365e-06
-8.313e-07
-1.54217e-06
-6.64886e-07
-1.45224e-06
-5.09246e-07
-1.33409e-06
-3.67934e-07
-1.18856e-06
-2.44541e-07
-1.01713e-06
-1.42641e-07
-8.21997e-07
-6.57232e-08
-6.06047e-07
-1.71338e-08
-3.72822e-07
-1.26718e-07
-1.83647e-08
1.4856e-07
-6.97599e-08
4.29627e-07
-1.50336e-07
6.89958e-07
-2.56188e-07
9.26145e-07
-3.83428e-07
1.13571e-06
-5.28243e-07
1.31685e-06
-6.86941e-07
1.46844e-06
-8.55992e-07
1.58998e-06
-1.03206e-06
1.68147e-06
-1.21204e-06
1.74341e-06
-1.39305e-06
1.77667e-06
-1.57246e-06
1.78244e-06
-1.74788e-06
1.76217e-06
-1.91717e-06
1.71746e-06
-2.07841e-06
1.65006e-06
-2.22991e-06
1.56179e-06
-2.37018e-06
1.45452e-06
-2.49793e-06
1.33015e-06
-2.61201e-06
1.19054e-06
-2.71147e-06
1.03756e-06
-2.79546e-06
8.73051e-07
-2.86328e-06
6.98851e-07
-2.91435e-06
5.16775e-07
-2.94819e-06
3.28644e-07
-2.96443e-06
1.36295e-07
-2.96282e-06
-5.83996e-08
-2.94319e-06
-2.53521e-07
-2.90553e-06
-4.47086e-07
-2.84992e-06
-6.37032e-07
-2.77662e-06
-8.21213e-07
-2.68604e-06
-9.97391e-07
-2.57878e-06
-1.16324e-06
-2.45563e-06
-1.31636e-06
-2.31765e-06
-1.45428e-06
-2.16611e-06
-1.57451e-06
-2.00258e-06
-1.67458e-06
-1.82894e-06
-1.75204e-06
-1.64734e-06
-1.8046e-06
-1.46027e-06
-1.83013e-06
-1.2705e-06
-1.82677e-06
-1.08114e-06
-1.79302e-06
-8.95515e-07
-1.72779e-06
-7.1723e-07
-1.63053e-06
-5.50059e-07
-1.50127e-06
-3.97914e-07
-1.3407e-06
-2.64771e-07
-1.15027e-06
-1.54605e-07
-9.32164e-07
-7.13051e-08
-6.89347e-07
-1.86075e-08
-4.2552e-07
-1.45325e-07
-1.9727e-08
1.68287e-07
-7.48606e-08
4.8476e-07
-1.61179e-07
7.76276e-07
-2.74398e-07
1.03936e-06
-4.10257e-07
1.27156e-06
-5.64587e-07
1.47118e-06
-7.33368e-07
1.63723e-06
-9.12778e-07
1.76939e-06
-1.09923e-06
1.86792e-06
-1.28939e-06
1.93357e-06
-1.48023e-06
1.9675e-06
-1.66897e-06
1.97118e-06
-1.85313e-06
1.94633e-06
-2.03051e-06
1.89484e-06
-2.19917e-06
1.81871e-06
-2.3574e-06
1.72002e-06
-2.50372e-06
1.60085e-06
-2.63686e-06
1.46329e-06
-2.75572e-06
1.30939e-06
-2.85936e-06
1.14119e-06
-2.94697e-06
9.60661e-07
-3.01787e-06
7.69758e-07
-3.07151e-06
5.7041e-07
-3.1074e-06
3.64539e-07
-3.12518e-06
1.54077e-07
-3.12457e-06
-5.90112e-08
-3.10539e-06
-2.72708e-07
-3.06755e-06
-4.84922e-07
-3.01111e-06
-6.93475e-07
-2.93624e-06
-8.96081e-07
-2.84328e-06
-1.09035e-06
-2.73277e-06
-1.27376e-06
-2.60542e-06
-1.4437e-06
-2.46222e-06
-1.59748e-06
-2.30441e-06
-1.73232e-06
-2.13354e-06
-1.84545e-06
-1.95148e-06
-1.93411e-06
-1.76043e-06
-1.99565e-06
-1.56296e-06
-2.0276e-06
-1.36199e-06
-2.02774e-06
-1.1608e-06
-1.99421e-06
-9.62983e-07
-1.92561e-06
-7.72419e-07
-1.82109e-06
-5.93237e-07
-1.68045e-06
-4.29735e-07
-1.5042e-06
-2.86313e-07
-1.29369e-06
-1.67385e-07
-1.05109e-06
-7.72875e-08
-7.79444e-07
-2.01936e-08
-4.82614e-07
-1.65519e-07
-2.1164e-08
1.89451e-07
-8.02219e-08
5.43818e-07
-1.72542e-07
8.68596e-07
-2.93423e-07
1.16025e-06
-4.382e-07
1.41634e-06
-6.02317e-07
1.6353e-06
-7.81402e-07
1.81631e-06
-9.71319e-07
1.9593e-06
-1.16822e-06
2.06481e-06
-1.36854e-06
2.1339e-06
-1.56909e-06
2.16805e-06
-1.76696e-06
2.16905e-06
-1.95959e-06
2.13896e-06
-2.14473e-06
2.07998e-06
-2.32041e-06
1.9944e-06
-2.48496e-06
1.88457e-06
-2.63691e-06
1.7528e-06
-2.77504e-06
1.60141e-06
-2.89828e-06
1.43264e-06
-3.00575e-06
1.24866e-06
-3.09669e-06
1.0516e-06
-3.17046e-06
8.43534e-07
-3.22653e-06
6.26479e-07
-3.26444e-06
4.02449e-07
-3.28382e-06
1.73454e-07
-3.28437e-06
-5.8462e-08
-3.26587e-06
-2.91202e-07
-3.22821e-06
-5.22585e-07
-3.17136e-06
-7.50328e-07
-3.09542e-06
-9.72023e-07
-3.00064e-06
-1.18512e-06
-2.88745e-06
-1.38694e-06
-2.7565e-06
-1.57465e-06
-2.60868e-06
-1.7453e-06
-2.44515e-06
-1.89585e-06
-2.26742e-06
-2.02318e-06
-2.07732e-06
-2.1242e-06
-1.87711e-06
-2.19587e-06
-1.6694e-06
-2.23531e-06
-1.45725e-06
-2.23989e-06
-1.24412e-06
-2.20735e-06
-1.03384e-06
-2.13589e-06
-8.30624e-07
-2.02431e-06
-6.38954e-07
-1.87212e-06
-4.63557e-07
-1.6796e-06
-3.09293e-07
-1.44796e-06
-1.81066e-07
-1.17932e-06
-8.37155e-08
-8.76795e-07
-2.19053e-08
-5.44424e-07
-1.87424e-07
-2.26834e-08
2.12134e-07
-8.58696e-08
6.07004e-07
-1.84472e-07
9.67198e-07
-3.13331e-07
1.2891e-06
-4.67333e-07
1.57034e-06
-6.41504e-07
1.80947e-06
-8.31088e-07
2.00589e-06
-1.03162e-06
2.15983e-06
-1.23896e-06
2.27215e-06
-1.44934e-06
2.34428e-06
-1.65937e-06
2.37808e-06
-1.86604e-06
2.37572e-06
-2.06672e-06
2.33964e-06
-2.25913e-06
2.27239e-06
-2.44131e-06
2.17658e-06
-2.6116e-06
2.05485e-06
-2.7686e-06
1.9098e-06
-2.91114e-06
1.74395e-06
-3.03823e-06
1.55973e-06
-3.14906e-06
1.35949e-06
-3.24293e-06
1.14547e-06
-3.31926e-06
9.19866e-07
-3.37756e-06
6.84775e-07
-3.41739e-06
4.4228e-07
-3.43839e-06
1.94455e-07
-3.44025e-06
-5.66018e-08
-3.42272e-06
-3.08731e-07
-3.38562e-06
-5.59685e-07
-3.32885e-06
-8.07094e-07
-3.25243e-06
-1.04844e-06
-3.1565e-06
-1.28105e-06
-3.04138e-06
-1.50207e-06
-2.90758e-06
-1.70845e-06
-2.75588e-06
-1.897e-06
-2.58736e-06
-2.06437e-06
-2.40343e-06
-2.20712e-06
-2.20589e-06
-2.32174e-06
-1.99696e-06
-2.40479e-06
-1.77933e-06
-2.45293e-06
-1.55616e-06
-2.46306e-06
-1.33107e-06
-2.43243e-06
-1.10817e-06
-2.35879e-06
-8.91967e-07
-2.24052e-06
-6.87357e-07
-2.07673e-06
-4.99519e-07
-1.86744e-06
-3.33828e-07
-1.61365e-06
-1.95732e-07
-1.31742e-06
-9.06333e-08
-9.81894e-07
-2.37562e-08
-6.11301e-07
-2.1118e-07
-2.42932e-08
2.36427e-07
-9.18304e-08
6.74541e-07
-1.97019e-07
1.07239e-06
-3.34187e-07
1.42627e-06
-4.97728e-07
1.73388e-06
-6.82205e-07
1.99394e-06
-8.82448e-07
2.20614e-06
-1.09363e-06
2.37102e-06
-1.31132e-06
2.48985e-06
-1.53153e-06
2.56448e-06
-1.75068e-06
2.59723e-06
-1.96568e-06
2.59072e-06
-2.17382e-06
2.54779e-06
-2.37283e-06
2.47139e-06
-2.56077e-06
2.36452e-06
-2.73604e-06
2.23012e-06
-2.89732e-06
2.07108e-06
-3.04352e-06
1.89015e-06
-3.17377e-06
1.68997e-06
-3.28733e-06
1.47304e-06
-3.38359e-06
1.24174e-06
-3.46206e-06
9.98332e-07
-3.52228e-06
7.44999e-07
-3.56388e-06
4.83873e-07
-3.58649e-06
2.17065e-07
-3.5898e-06
-5.32922e-08
-3.57352e-06
-3.25006e-07
-3.53742e-06
-5.95784e-07
-3.48132e-06
-8.63197e-07
-3.40512e-06
-1.12465e-06
-3.30883e-06
-1.37734e-06
-3.19265e-06
-1.61825e-06
-3.05694e-06
-1.84416e-06
-2.90233e-06
-2.05161e-06
-2.72976e-06
-2.23695e-06
-2.54051e-06
-2.39636e-06
-2.33632e-06
-2.52594e-06
-2.11935e-06
-2.62176e-06
-1.89232e-06
-2.67997e-06
-1.65845e-06
-2.69693e-06
-1.42155e-06
-2.66933e-06
-1.18595e-06
-2.59439e-06
-9.5652e-07
-2.46995e-06
-7.38558e-07
-2.29469e-06
-5.3775e-07
-2.06825e-06
-3.60031e-07
-1.79137e-06
-2.11464e-07
-1.46598e-06
-9.80854e-08
-1.09527e-06
-2.57598e-08
-6.83627e-07
-2.3694e-07
-2.60027e-08
2.6243e-07
-9.8134e-08
7.46673e-07
-2.10234e-07
1.18449e-06
-3.5606e-07
1.5721e-06
-5.29453e-07
1.90728e-06
-7.24466e-07
2.18896e-06
-9.35477e-07
2.41715e-06
-1.15727e-06
2.59281e-06
-1.38512e-06
2.71769e-06
-1.61477e-06
2.79414e-06
-1.84253e-06
2.82498e-06
-2.06517e-06
2.81336e-06
-2.27998e-06
2.7626e-06
-2.4847e-06
2.67611e-06
-2.67744e-06
2.55727e-06
-2.85671e-06
2.40939e-06
-3.02128e-06
2.23565e-06
-3.1702e-06
2.03907e-06
-3.3027e-06
1.82248e-06
-3.41819e-06
1.58853e-06
-3.51616e-06
1.33971e-06
-3.5962e-06
1.07837e-06
-3.65794e-06
8.06746e-07
-3.70106e-06
5.26988e-07
-3.72522e-06
2.41222e-07
-3.73009e-06
-4.84143e-08
-3.71538e-06
-3.39724e-07
-3.68076e-06
-6.304e-07
-3.62597e-06
-9.17984e-07
-3.5508e-06
-1.19982e-06
-3.45512e-06
-1.47302e-06
-3.33894e-06
-1.73443e-06
-3.20246e-06
-1.98064e-06
-3.04612e-06
-2.20795e-06
-2.87068e-06
-2.41239e-06
-2.67727e-06
-2.58977e-06
-2.46748e-06
-2.73573e-06
-2.2434e-06
-2.84583e-06
-2.00771e-06
-2.91566e-06
-1.7637e-06
-2.94094e-06
-1.51531e-06
-2.91773e-06
-1.26711e-06
-2.84259e-06
-1.0243e-06
-2.71276e-06
-7.92642e-07
-2.52635e-06
-5.78358e-07
-2.28253e-06
-3.88009e-07
-1.98172e-06
-2.28342e-07
-1.62565e-06
-1.06118e-07
-1.2175e-06
-2.79307e-08
-7.61814e-07
-2.64871e-07
-2.78224e-08
2.90252e-07
-1.04815e-07
8.23665e-07
-2.24179e-07
1.30385e-06
-3.79027e-07
1.72695e-06
-5.62583e-07
2.09083e-06
-7.68332e-07
2.3947e-06
-9.90154e-07
2.63897e-06
-1.22242e-06
2.82508e-06
-1.46007e-06
2.95534e-06
-1.69864e-06
3.03271e-06
-1.93426e-06
3.0606e-06
-2.16365e-06
3.04275e-06
-2.38409e-06
2.98304e-06
-2.59336e-06
2.88538e-06
-2.7897e-06
2.7536e-06
-2.97171e-06
2.59141e-06
-3.13834e-06
2.40228e-06
-3.28878e-06
2.18951e-06
-3.42243e-06
1.95613e-06
-3.53884e-06
1.70493e-06
-3.63764e-06
1.43851e-06
-3.71854e-06
1.15928e-06