/*--------------------------------*- C++ -*----------------------------------*\
  =========                 |
  \\      /  F ield         | OpenFOAM: The Open Source CFD Toolbox
   \\    /   O peration     | Website:  https://openfoam.org
    \\  /    A nd           | Version:  7
     \\/     M anipulation  |
\*---------------------------------------------------------------------------*/
FoamFile
{
    version     2.0;
    format      ascii;
    class       volScalarField;
    location    "0.0734";
    object      p;
}
// * * * * * * * * * * * * * * * * * * * * * * * * * * * * * * * * * * * * * //

dimensions      [0 2 -2 0 0 0 0];

internalField   nonuniform List<scalar> 
2500
(
2.71778e-05
-6.51217
-9.29778
-10.4942
-11.1603
-11.5674
-11.8317
-12.0172
-12.1556
-12.2633
-12.3497
-12.4203
-12.4789
-12.5281
-12.5697
-12.605
-12.6349
-12.6604
-12.6821
-12.7004
-12.7158
-12.7288
-12.7397
-12.7487
-12.7564
-12.7629
-12.7686
-12.7739
-12.779
-12.7845
-12.7906
-12.7979
-12.8069
-12.8182
-12.8324
-12.8504
-12.8733
-12.9023
-12.9391
-12.9861
-13.0468
-13.1264
-13.2335
-13.3837
-13.6079
-13.9669
-14.5676
-15.6691
-18.3365
-24.7213
-4.95523
-7.67545
-9.18259
-10.1432
-10.8117
-11.2723
-11.5946
-11.8287
-12.0048
-12.1412
-12.2496
-12.3374
-12.4097
-12.47
-12.5207
-12.5638
-12.6004
-12.6318
-12.6588
-12.6819
-12.7018
-12.719
-12.7339
-12.7469
-12.7584
-12.7688
-12.7784
-12.7877
-12.797
-12.8068
-12.8177
-12.83
-12.8446
-12.862
-12.8832
-12.9093
-12.9417
-12.9821
-13.033
-13.0976
-13.1809
-13.2899
-13.4358
-13.6359
-13.9192
-14.3337
-14.9444
-15.8331
-17.2534
-19.8523
-7.92423
-8.75705
-9.55845
-10.2399
-10.7807
-11.1914
-11.5017
-11.7392
-11.924
-12.0703
-12.1881
-12.2844
-12.3641
-12.431
-12.4874
-12.5355
-12.5768
-12.6122
-12.6429
-12.6695
-12.6927
-12.713
-12.7308
-12.7468
-12.7612
-12.7744
-12.7869
-12.7992
-12.8116
-12.8246
-12.8388
-12.8548
-12.8732
-12.8949
-12.9209
-12.9523
-12.9906
-13.0378
-13.0965
-13.1702
-13.2635
-13.3833
-13.5391
-13.7446
-14.019
-14.3886
-14.8816
-15.5101
-16.256
-17.0193
-9.43315
-9.64705
-10.0666
-10.5121
-10.9056
-11.2333
-11.5005
-11.7169
-11.8926
-12.0361
-12.1545
-12.2529
-12.3355
-12.4055
-12.4651
-12.5163
-12.5605
-12.5987
-12.6321
-12.6612
-12.6869
-12.7096
-12.7298
-12.748
-12.7646
-12.7801
-12.795
-12.8095
-12.8243
-12.8398
-12.8565
-12.8751
-12.8963
-12.921
-12.9501
-12.9847
-13.0265
-13.0773
-13.1393
-13.2158
-13.3106
-13.429
-13.5777
-13.7649
-14.0004
-14.2934
-14.6495
-15.056
-15.4385
-15.6163
-10.3181
-10.3183
-10.5228
-10.8001
-11.0753
-11.326
-11.5453
-11.7329
-11.8918
-12.0261
-12.1397
-12.2362
-12.3186
-12.3893
-12.4503
-12.5031
-12.5491
-12.5893
-12.6246
-12.6557
-12.6832
-12.7078
-12.7299
-12.75
-12.7686
-12.786
-12.8027
-12.8191
-12.8358
-12.8533
-12.872
-12.8926
-12.9159
-12.9426
-12.9737
-13.0103
-13.0537
-13.1057
-13.1682
-13.2437
-13.3351
-13.4459
-13.58
-13.7416
-13.9336
-14.1559
-14.4021
-14.6516
-14.8317
-14.8134
-10.8842
-10.8109
-10.9003
-11.0683
-11.2568
-11.4437
-11.6183
-11.7755
-11.9144
-12.0357
-12.1412
-12.2329
-12.3126
-12.382
-12.4427
-12.4958
-12.5425
-12.5837
-12.6202
-12.6526
-12.6815
-12.7075
-12.7311
-12.7526
-12.7726
-12.7915
-12.8097
-12.8276
-12.8458
-12.8646
-12.8848
-12.9068
-12.9313
-12.9592
-12.9913
-13.0285
-13.0721
-13.1234
-13.184
-13.2557
-13.3403
-13.44
-13.5566
-13.691
-13.8425
-14.0064
-14.1727
-14.321
-14.3949
-14.3135
-11.2659
-11.1759
-11.2069
-11.3065
-11.4336
-11.5705
-11.7066
-11.8353
-11.9536
-12.0604
-12.1559
-12.2408
-12.316
-12.3826
-12.4416
-12.4939
-12.5404
-12.5817
-12.6186
-12.6517
-12.6815
-12.7084
-12.7329
-12.7555
-12.7765
-12.7964
-12.8157
-12.8346
-12.8538
-12.8736
-12.8946
-12.9174
-12.9425
-12.9708
-13.0028
-13.0396
-13.0821
-13.1313
-13.1883
-13.2543
-13.3305
-13.4176
-13.5161
-13.625
-13.7418
-13.8603
-13.9707
-14.0563
-14.0778
-13.9857
-11.5387
-11.4526
-11.4546
-11.5119
-11.5966
-11.6958
-11.8005
-11.9042
-12.0033
-12.0956
-12.1803
-12.2574
-12.327
-12.3897
-12.446
-12.4965
-12.5419
-12.5827
-12.6195
-12.6526
-12.6827
-12.71
-12.7351
-12.7583
-12.78
-12.8005
-12.8204
-12.84
-12.8597
-12.88
-12.9014
-12.9244
-12.9496
-12.9775
-13.0089
-13.0444
-13.0848
-13.1309
-13.1833
-13.2428
-13.3098
-13.3844
-13.466
-13.5528
-13.6415
-13.7262
-13.7983
-13.8459
-13.8425
-13.7575
-11.7443
-11.6676
-11.6555
-11.6869
-11.7427
-11.814
-11.8939
-11.9767
-12.0586
-12.1373
-12.2114
-12.2803
-12.3438
-12.4018
-12.4548
-12.5029
-12.5466
-12.5862
-12.6222
-12.655
-12.6848
-12.7122
-12.7374
-12.7608
-12.7827
-12.8036
-12.8238
-12.8436
-12.8635
-12.8839
-12.9053
-12.928
-12.9527
-12.9798
-13.0099
-13.0436
-13.0813
-13.1237
-13.1711
-13.2238
-13.2819
-13.3448
-13.4115
-13.48
-13.5468
-13.6067
-13.6532
-13.678
-13.6634
-13.5899
-11.9057
-11.8389
-11.8203
-11.8356
-11.8718
-11.9229
-11.9835
-12.0491
-12.1162
-12.1827
-12.2468
-12.3077
-12.3648
-12.4179
-12.467
-12.5121
-12.5536
-12.5916
-12.6264
-12.6583
-12.6876
-12.7146
-12.7395
-12.7628
-12.7847
-12.8055
-12.8256
-12.8454
-12.8652
-12.8854
-12.9063
-12.9285
-12.9523
-12.9782
-13.0067
-13.0381
-13.0728
-13.1112
-13.1535
-13.1997
-13.2494
-13.3019
-13.356
-13.4097
-13.4597
-13.5019
-13.5314
-13.5426
-13.5235
-13.4613
-12.0362
-11.9782
-11.9571
-11.9625
-11.9854
-12.0217
-12.0675
-12.1192
-12.1739
-12.2296
-12.2845
-12.3378
-12.3887
-12.4367
-12.4817
-12.5237
-12.5626
-12.5985
-12.6318
-12.6625
-12.6908
-12.717
-12.7414
-12.7642
-12.7858
-12.8063
-12.8261
-12.8455
-12.8648
-12.8845
-12.9047
-12.926
-12.9487
-12.9732
-12.9997
-13.0286
-13.0603
-13.0947
-13.1321
-13.1721
-13.2143
-13.2579
-13.3016
-13.3434
-13.3808
-13.4104
-13.4286
-13.4318
-13.4117
-13.3594
-12.1442
-12.0937
-12.072
-12.0715
-12.0853
-12.1108
-12.1452
-12.1858
-12.2302
-12.2765
-12.3233
-12.3696
-12.4144
-12.4575
-12.4983
-12.5368
-12.5729
-12.6066
-12.638
-12.6671
-12.6942
-12.7194
-12.743
-12.7651
-12.786
-12.8059
-12.8251
-12.8439
-12.8626
-12.8815
-12.9008
-12.921
-12.9424
-12.9652
-12.9897
-13.0161
-13.0446
-13.0752
-13.1079
-13.1424
-13.1781
-13.2141
-13.2493
-13.2819
-13.3098
-13.3304
-13.3413
-13.3399
-13.3204
-13.2763
-12.2352
-12.1909
-12.1698
-12.1656
-12.1732
-12.1909
-12.2167
-12.2484
-12.2843
-12.3226
-12.3622
-12.402
-12.4413
-12.4794
-12.5162
-12.5512
-12.5843
-12.6155
-12.6448
-12.6722
-12.6978
-12.7217
-12.7442
-12.7653
-12.7853
-12.8044
-12.8228
-12.8408
-12.8587
-12.8766
-12.8949
-12.9139
-12.9337
-12.9548
-12.9772
-13.0011
-13.0266
-13.0537
-13.0821
-13.1117
-13.1417
-13.1714
-13.1997
-13.2252
-13.246
-13.2604
-13.2664
-13.2625
-13.2444
-13.2072
-12.3129
-12.274
-12.2539
-12.2476
-12.2509
-12.2629
-12.2821
-12.3068
-12.3356
-12.3672
-12.4004
-12.4345
-12.4686
-12.5021
-12.5348
-12.5663
-12.5964
-12.625
-12.6521
-12.6775
-12.7014
-12.7239
-12.7451
-12.7651
-12.784
-12.8021
-12.8195
-12.8365
-12.8533
-12.8702
-12.8873
-12.9049
-12.9232
-12.9424
-12.9627
-12.9842
-13.0069
-13.0307
-13.0553
-13.0806
-13.1058
-13.1303
-13.1531
-13.173
-13.1887
-13.1986
-13.2015
-13.1964
-13.1801
-13.1486
-12.38
-12.3457
-12.327
-12.3195
-12.32
-12.3278
-12.3419
-12.361
-12.384
-12.4099
-12.4377
-12.4665
-12.4959
-12.5252
-12.554
-12.5821
-12.6091
-12.635
-12.6597
-12.6831
-12.7052
-12.726
-12.7457
-12.7644
-12.7821
-12.799
-12.8153
-12.8312
-12.8468
-12.8624
-12.8782
-12.8944
-12.9111
-12.9286
-12.9468
-12.966
-12.986
-13.0068
-13.0281
-13.0496
-13.0708
-13.091
-13.1094
-13.1251
-13.1369
-13.1437
-13.1447
-13.1392
-13.1247
-13.0982
-12.4386
-12.4084
-12.3911
-12.3831
-12.3817
-12.3864
-12.3966
-12.4113
-12.4296
-12.4506
-12.4736
-12.4979
-12.523
-12.5483
-12.5734
-12.5982
-12.6222
-12.6454
-12.6677
-12.6889
-12.709
-12.7281
-12.7462
-12.7634
-12.7797
-12.7953
-12.8104
-12.825
-12.8394
-12.8537
-12.8681
-12.8828
-12.8979
-12.9136
-12.9299
-12.9468
-12.9644
-12.9825
-13.0008
-13.0191
-13.0369
-13.0536
-13.0685
-13.0809
-13.0898
-13.0945
-13.0943
-13.0889
-13.0763
-13.0541
-12.4903
-12.4636
-12.4478
-12.4397
-12.4371
-12.4397
-12.4469
-12.458
-12.4724
-12.4894
-12.5082
-12.5285
-12.5496
-12.5712
-12.5929
-12.6145
-12.6356
-12.6561
-12.6759
-12.6949
-12.713
-12.7303
-12.7467
-12.7623
-12.7771
-12.7913
-12.805
-12.8183
-12.8313
-12.8443
-12.8573
-12.8704
-12.8839
-12.8978
-12.9122
-12.9271
-12.9424
-12.958
-12.9737
-12.9892
-13.0041
-13.0179
-13.0301
-13.0399
-13.0467
-13.05
-13.0492
-13.0442
-13.0335
-13.015
-12.5361
-12.5127
-12.4985
-12.4906
-12.4873
-12.4883
-12.4932
-12.5015
-12.5127
-12.5262
-12.5415
-12.5581
-12.5757
-12.594
-12.6124
-12.6309
-12.6492
-12.6671
-12.6845
-12.7012
-12.7173
-12.7326
-12.7472
-12.7611
-12.7744
-12.7871
-12.7994
-12.8112
-12.8228
-12.8343
-12.8458
-12.8575
-12.8693
-12.8815
-12.894
-12.9069
-12.9201
-12.9335
-12.9469
-12.96
-12.9725
-12.9839
-12.9938
-13.0017
-13.007
-13.0093
-13.0083
-13.004
-12.995
-12.9798
-12.5773
-12.5568
-12.5441
-12.5367
-12.533
-12.5329
-12.536
-12.5421
-12.5506
-12.5612
-12.5734
-12.5869
-12.6013
-12.6164
-12.6319
-12.6475
-12.6631
-12.6784
-12.6934
-12.7079
-12.7218
-12.7352
-12.748
-12.7602
-12.7718
-12.7829
-12.7936
-12.804
-12.8141
-12.8241
-12.8341
-12.8442
-12.8544
-12.8649
-12.8757
-12.8867
-12.8979
-12.9092
-12.9205
-12.9315
-12.9419
-12.9513
-12.9594
-12.9658
-12.97
-12.9717
-12.9708
-12.9672
-12.9599
-12.9478
-12.6144
-12.5968
-12.5856
-12.5788
-12.575
-12.5741
-12.5759
-12.5801
-12.5865
-12.5945
-12.604
-12.6147
-12.6263
-12.6386
-12.6513
-12.6642
-12.6771
-12.69
-12.7026
-12.7148
-12.7267
-12.7381
-12.749
-12.7595
-12.7694
-12.7789
-12.788
-12.7968
-12.8054
-12.8139
-12.8223
-12.8308
-12.8394
-12.8482
-12.8572
-12.8664
-12.8758
-12.8852
-12.8946
-12.9036
-12.9122
-12.9199
-12.9265
-12.9317
-12.9351
-12.9366
-12.9359
-12.9331
-12.9275
-12.9181
-12.6483
-12.6334
-12.6237
-12.6175
-12.6138
-12.6125
-12.6133
-12.616
-12.6205
-12.6265
-12.6336
-12.6418
-12.6508
-12.6605
-12.6706
-12.6809
-12.6914
-12.7018
-12.7122
-12.7223
-12.7321
-12.7415
-12.7505
-12.7591
-12.7673
-12.7752
-12.7827
-12.7899
-12.7969
-12.8038
-12.8106
-12.8174
-12.8244
-12.8315
-12.8387
-12.8462
-12.8538
-12.8614
-12.869
-12.8764
-12.8833
-12.8896
-12.8949
-12.8992
-12.902
-12.9033
-12.903
-12.901
-12.897
-12.8904
-12.6796
-12.6671
-12.6589
-12.6536
-12.6501
-12.6485
-12.6485
-12.6501
-12.6531
-12.6572
-12.6623
-12.6682
-12.6749
-12.6821
-12.6898
-12.6977
-12.7059
-12.714
-12.7222
-12.7301
-12.7379
-12.7453
-12.7525
-12.7593
-12.7658
-12.7719
-12.7777
-12.7833
-12.7886
-12.7939
-12.799
-12.8042
-12.8095
-12.8149
-12.8204
-12.8261
-12.832
-12.8379
-12.8438
-12.8495
-12.855
-12.86
-12.8642
-12.8677
-12.8701
-12.8714
-12.8715
-12.8705
-12.8681
-12.8639
-12.7087
-12.6987
-12.692
-12.6875
-12.6844
-12.6826
-12.6821
-12.6827
-12.6843
-12.6868
-12.6901
-12.694
-12.6986
-12.7036
-12.709
-12.7147
-12.7206
-12.7266
-12.7326
-12.7385
-12.7442
-12.7498
-12.755
-12.76
-12.7647
-12.7691
-12.7732
-12.7771
-12.7808
-12.7843
-12.7878
-12.7913
-12.7948
-12.7985
-12.8023
-12.8062
-12.8103
-12.8146
-12.8188
-12.8231
-12.8271
-12.8309
-12.8342
-12.8369
-12.839
-12.8404
-12.841
-12.8409
-12.8401
-12.8383
-12.7362
-12.7286
-12.7234
-12.7198
-12.7171
-12.7153
-12.7144
-12.7141
-12.7146
-12.7157
-12.7173
-12.7194
-12.722
-12.725
-12.7283
-12.7318
-12.7356
-12.7395
-12.7434
-12.7473
-12.7511
-12.7548
-12.7582
-12.7614
-12.7643
-12.7669
-12.7693
-12.7714
-12.7734
-12.7752
-12.777
-12.7787
-12.7805
-12.7823
-12.7844
-12.7865
-12.7889
-12.7914
-12.794
-12.7967
-12.7994
-12.802
-12.8044
-12.8066
-12.8084
-12.8099
-12.811
-12.8119
-12.8125
-12.8132
-12.7625
-12.7572
-12.7535
-12.7508
-12.7486
-12.7469
-12.7456
-12.7447
-12.7441
-12.7439
-12.744
-12.7444
-12.7452
-12.7462
-12.7476
-12.7491
-12.7509
-12.7528
-12.7548
-12.7567
-12.7586
-12.7604
-12.762
-12.7633
-12.7645
-12.7654
-12.766
-12.7664
-12.7666
-12.7666
-12.7666
-12.7665
-12.7665
-12.7665
-12.7666
-12.767
-12.7675
-12.7683
-12.7693
-12.7704
-12.7718
-12.7732
-12.7747
-12.7762
-12.7778
-12.7794
-12.7811
-12.7829
-12.7851
-12.788
-12.788
-12.7851
-12.7829
-12.7811
-12.7794
-12.7778
-12.7762
-12.7747
-12.7732
-12.7718
-12.7704
-12.7693
-12.7683
-12.7675
-12.767
-12.7666
-12.7665
-12.7665
-12.7665
-12.7666
-12.7666
-12.7666
-12.7664
-12.766
-12.7653
-12.7645
-12.7633
-12.762
-12.7604
-12.7586
-12.7567
-12.7548
-12.7528
-12.7509
-12.7491
-12.7476
-12.7462
-12.7452
-12.7444
-12.744
-12.7439
-12.7441
-12.7447
-12.7456
-12.7469
-12.7486
-12.7508
-12.7535
-12.7572
-12.7625
-12.8132
-12.8125
-12.8119
-12.811
-12.8099
-12.8084
-12.8066
-12.8044
-12.802
-12.7994
-12.7967
-12.794
-12.7914
-12.7889
-12.7865
-12.7843
-12.7823
-12.7805
-12.7787
-12.777
-12.7752
-12.7734
-12.7714
-12.7693
-12.7669
-12.7643
-12.7614
-12.7582
-12.7548
-12.7511
-12.7473
-12.7434
-12.7395
-12.7356
-12.7318
-12.7283
-12.725
-12.722
-12.7194
-12.7173
-12.7157
-12.7146
-12.7142
-12.7144
-12.7153
-12.7171
-12.7198
-12.7234
-12.7286
-12.7362
-12.8383
-12.84
-12.8409
-12.841
-12.8404
-12.839
-12.8369
-12.8342
-12.8309
-12.8271
-12.823
-12.8188
-12.8146
-12.8103
-12.8062
-12.8023
-12.7985
-12.7948
-12.7913
-12.7878
-12.7843
-12.7808
-12.7771
-12.7732
-12.7691
-12.7647
-12.76
-12.755
-12.7498
-12.7442
-12.7385
-12.7326
-12.7266
-12.7206
-12.7147
-12.709
-12.7036
-12.6986
-12.694
-12.6901
-12.6868
-12.6843
-12.6827
-12.6821
-12.6826
-12.6844
-12.6875
-12.692
-12.6987
-12.7087
-12.8639
-12.8681
-12.8705
-12.8715
-12.8714
-12.8701
-12.8677
-12.8642
-12.86
-12.855
-12.8495
-12.8438
-12.8379
-12.832
-12.8261
-12.8204
-12.8149
-12.8095
-12.8042
-12.799
-12.7939
-12.7886
-12.7833
-12.7777
-12.7719
-12.7658
-12.7593
-12.7525
-12.7453
-12.7379
-12.7301
-12.7222
-12.714
-12.7059
-12.6977
-12.6898
-12.6821
-12.6749
-12.6682
-12.6623
-12.6572
-12.6531
-12.6501
-12.6486
-12.6485
-12.6501
-12.6536
-12.659
-12.6671
-12.6796
-12.8904
-12.897
-12.901
-12.903
-12.9033
-12.902
-12.8991
-12.8949
-12.8896
-12.8833
-12.8764
-12.869
-12.8614
-12.8538
-12.8462
-12.8387
-12.8315
-12.8244
-12.8174
-12.8106
-12.8038
-12.7969
-12.7899
-12.7827
-12.7752
-12.7673
-12.7591
-12.7505
-12.7415
-12.7321
-12.7223
-12.7122
-12.7018
-12.6914
-12.6809
-12.6706
-12.6605
-12.6508
-12.6418
-12.6336
-12.6265
-12.6205
-12.6161
-12.6133
-12.6125
-12.6138
-12.6175
-12.6237
-12.6334
-12.6483
-12.9181
-12.9275
-12.9331
-12.9359
-12.9366
-12.9351
-12.9317
-12.9265
-12.9199
-12.9122
-12.9036
-12.8946
-12.8852
-12.8758
-12.8664
-12.8572
-12.8482
-12.8394
-12.8308
-12.8223
-12.8139
-12.8054
-12.7968
-12.788
-12.7789
-12.7694
-12.7595
-12.749
-12.7381
-12.7267
-12.7149
-12.7026
-12.69
-12.6771
-12.6642
-12.6513
-12.6386
-12.6263
-12.6147
-12.6041
-12.5945
-12.5865
-12.5801
-12.5759
-12.5741
-12.575
-12.5788
-12.5856
-12.5968
-12.6144
-12.9478
-12.9599
-12.9671
-12.9708
-12.9717
-12.97
-12.9657
-12.9594
-12.9513
-12.9419
-12.9315
-12.9205
-12.9092
-12.8979
-12.8867
-12.8757
-12.8649
-12.8544
-12.8442
-12.8341
-12.8241
-12.8141
-12.804
-12.7936
-12.7829
-12.7718
-12.7602
-12.748
-12.7352
-12.7218
-12.7079
-12.6934
-12.6784
-12.6631
-12.6475
-12.6319
-12.6164
-12.6013
-12.5869
-12.5734
-12.5612
-12.5506
-12.5421
-12.536
-12.5329
-12.533
-12.5367
-12.5441
-12.5569
-12.5773
-12.9798
-12.995
-13.004
-13.0083
-13.0093
-13.007
-13.0017
-12.9938
-12.9839
-12.9725
-12.96
-12.9469
-12.9335
-12.9201
-12.9069
-12.894
-12.8815
-12.8693
-12.8575
-12.8458
-12.8343
-12.8228
-12.8112
-12.7994
-12.7871
-12.7744
-12.7611
-12.7472
-12.7326
-12.7173
-12.7012
-12.6845
-12.6671
-12.6492
-12.6309
-12.6124
-12.594
-12.5758
-12.5581
-12.5415
-12.5262
-12.5127
-12.5015
-12.4932
-12.4883
-12.4873
-12.4906
-12.4985
-12.5128
-12.5362
-13.015
-13.0335
-13.0442
-13.0492
-13.05
-13.0467
-13.0399
-13.0301
-13.0179
-13.0041
-12.9892
-12.9737
-12.958
-12.9424
-12.9271
-12.9122
-12.8978
-12.8839
-12.8704
-12.8573
-12.8443
-12.8313
-12.8183
-12.805
-12.7913
-12.7771
-12.7623
-12.7467
-12.7303
-12.713
-12.6949
-12.6759
-12.6561
-12.6356
-12.6145
-12.5929
-12.5712
-12.5496
-12.5285
-12.5082
-12.4894
-12.4724
-12.458
-12.4469
-12.4397
-12.4371
-12.4397
-12.4478
-12.4636
-12.4903
-13.0541
-13.0763
-13.0889
-13.0943
-13.0945
-13.0898
-13.0809
-13.0685
-13.0536
-13.0369
-13.0191
-13.0008
-12.9825
-12.9644
-12.9468
-12.9299
-12.9136
-12.8979
-12.8828
-12.8681
-12.8537
-12.8394
-12.825
-12.8104
-12.7953
-12.7797
-12.7634
-12.7462
-12.7281
-12.709
-12.6889
-12.6677
-12.6454
-12.6222
-12.5982
-12.5734
-12.5483
-12.523
-12.4979
-12.4736
-12.4506
-12.4296
-12.4113
-12.3966
-12.3864
-12.3817
-12.3831
-12.3911
-12.4084
-12.4387
-13.0982
-13.1247
-13.1392
-13.1447
-13.1437
-13.1369
-13.1251
-13.1094
-13.091
-13.0708
-13.0496
-13.0281
-13.0068
-12.986
-12.966
-12.9468
-12.9286
-12.9111
-12.8944
-12.8782
-12.8624
-12.8468
-12.8312
-12.8153
-12.799
-12.7821
-12.7644
-12.7457
-12.726
-12.7052
-12.6831
-12.6597
-12.635
-12.6091
-12.5821
-12.554
-12.5252
-12.4959
-12.4665
-12.4377
-12.4099
-12.3841
-12.361
-12.3419
-12.3278
-12.32
-12.3195
-12.327
-12.3458
-12.38
-13.1486
-13.1801
-13.1964
-13.2015
-13.1986
-13.1887
-13.173
-13.1531
-13.1303
-13.1058
-13.0806
-13.0553
-13.0306
-13.0069
-12.9842
-12.9627
-12.9424
-12.9232
-12.9049
-12.8873
-12.8702
-12.8533
-12.8365
-12.8195
-12.8021
-12.784
-12.7651
-12.7451
-12.7239
-12.7014
-12.6775
-12.6521
-12.625
-12.5964
-12.5663
-12.5348
-12.5022
-12.4686
-12.4345
-12.4004
-12.3672
-12.3356
-12.3068
-12.2821
-12.2629
-12.2509
-12.2476
-12.2539
-12.274
-12.3129
-13.2072
-13.2444
-13.2625
-13.2664
-13.2604
-13.246
-13.2252
-13.1997
-13.1714
-13.1417
-13.1117
-13.0821
-13.0537
-13.0266
-13.0011
-12.9772
-12.9548
-12.9337
-12.9139
-12.8949
-12.8766
-12.8587
-12.8408
-12.8228
-12.8044
-12.7853
-12.7653
-12.7442
-12.7217
-12.6978
-12.6722
-12.6448
-12.6155
-12.5843
-12.5512
-12.5162
-12.4795
-12.4413
-12.402
-12.3622
-12.3226
-12.2843
-12.2484
-12.2167
-12.1909
-12.1732
-12.1656
-12.1698
-12.1909
-12.2352
-13.2763
-13.3204
-13.3399
-13.3413
-13.3304
-13.3098
-13.2819
-13.2493
-13.2141
-13.1781
-13.1424
-13.1079
-13.0752
-13.0446
-13.0161
-12.9897
-12.9652
-12.9424
-12.921
-12.9008
-12.8815
-12.8626
-12.8439
-12.8251
-12.8059
-12.786
-12.7651
-12.743
-12.7194
-12.6942
-12.6671
-12.638
-12.6066
-12.5729
-12.5368
-12.4983
-12.4575
-12.4144
-12.3696
-12.3234
-12.2766
-12.2302
-12.1858
-12.1452
-12.1108
-12.0853
-12.0715
-12.072
-12.0937
-12.1442
-13.3594
-13.4117
-13.4318
-13.4286
-13.4104
-13.3808
-13.3434
-13.3016
-13.2579
-13.2143
-13.1721
-13.1321
-13.0947
-13.0603
-13.0286
-12.9997
-12.9732
-12.9487
-12.926
-12.9047
-12.8845
-12.8648
-12.8455
-12.8261
-12.8063
-12.7858
-12.7642
-12.7414
-12.717
-12.6908
-12.6625
-12.6318
-12.5985
-12.5626
-12.5237
-12.4817
-12.4367
-12.3887
-12.3378
-12.2846
-12.2296
-12.1739
-12.1192
-12.0675
-12.0217
-11.9854
-11.9625
-11.9571
-11.9782
-12.0362
-13.4613
-13.5235
-13.5426
-13.5314
-13.5019
-13.4597
-13.4096
-13.356
-13.3019
-13.2494
-13.1997
-13.1535
-13.1112
-13.0728
-13.0381
-13.0067
-12.9782
-12.9523
-12.9285
-12.9063
-12.8854
-12.8652
-12.8454
-12.8256
-12.8055
-12.7847
-12.7628
-12.7395
-12.7146
-12.6876
-12.6583
-12.6264
-12.5916
-12.5536
-12.5122
-12.467
-12.4179
-12.3648
-12.3077
-12.2468
-12.1827
-12.1162
-12.0491
-11.9835
-11.9229
-11.8718
-11.8356
-11.8203
-11.8389
-11.9057
-13.5899
-13.6634
-13.678
-13.6532
-13.6067
-13.5468
-13.48
-13.4115
-13.3448
-13.2819
-13.2238
-13.1711
-13.1237
-13.0813
-13.0436
-13.0099
-12.9798
-12.9527
-12.928
-12.9053
-12.8839
-12.8635
-12.8436
-12.8238
-12.8036
-12.7827
-12.7608
-12.7374
-12.7122
-12.6848
-12.655
-12.6222
-12.5862
-12.5466
-12.5029
-12.4548
-12.4018
-12.3438
-12.2803
-12.2114
-12.1373
-12.0586
-11.9767
-11.8939
-11.814
-11.7427
-11.6869
-11.6555
-11.6676
-11.7443
-13.7575
-13.8425
-13.8459
-13.7983
-13.7261
-13.6415
-13.5528
-13.466
-13.3844
-13.3098
-13.2428
-13.1833
-13.1309
-13.0848
-13.0444
-13.0089
-12.9775
-12.9496
-12.9244
-12.9014
-12.88
-12.8597
-12.84
-12.8204
-12.8005
-12.78
-12.7583
-12.7351
-12.71
-12.6827
-12.6526
-12.6195
-12.5827
-12.5419
-12.4965
-12.446
-12.3897
-12.327
-12.2574
-12.1803
-12.0956
-12.0033
-11.9042
-11.8005
-11.6958
-11.5966
-11.5119
-11.4546
-11.4526
-11.5387
-13.9857
-14.0778
-14.0563
-13.9707
-13.8603
-13.7418
-13.625
-13.5161
-13.4176
-13.3305
-13.2543
-13.1883
-13.1313
-13.0821
-13.0396
-13.0028
-12.9708
-12.9425
-12.9174
-12.8946
-12.8736
-12.8538
-12.8346
-12.8157
-12.7964
-12.7765
-12.7555
-12.7329
-12.7084
-12.6815
-12.6517
-12.6186
-12.5817
-12.5404
-12.4939
-12.4416
-12.3826
-12.316
-12.2408
-12.1559
-12.0604
-11.9536
-11.8353
-11.7066
-11.5705
-11.4336
-11.3065
-11.2069
-11.1759
-11.2659
-14.3135
-14.3949
-14.321
-14.1727
-14.0064
-13.8425
-13.691
-13.5566
-13.44
-13.3403
-13.2557
-13.184
-13.1234
-13.0721
-13.0285
-12.9913
-12.9592
-12.9313
-12.9068
-12.8848
-12.8646
-12.8458
-12.8276
-12.8097
-12.7915
-12.7726
-12.7526
-12.7311
-12.7075
-12.6815
-12.6526
-12.6202
-12.5837
-12.5425
-12.4958
-12.4427
-12.382
-12.3126
-12.2329
-12.1412
-12.0357
-11.9144
-11.7755
-11.6183
-11.4437
-11.2568
-11.0683
-10.9003
-10.8108
-10.8842
-14.8134
-14.8317
-14.6516
-14.4021
-14.1559
-13.9336
-13.7416
-13.58
-13.4459
-13.3351
-13.2437
-13.1682
-13.1057
-13.0537
-13.0103
-12.9737
-12.9426
-12.9159
-12.8926
-12.872
-12.8533
-12.8358
-12.8191
-12.8027
-12.786
-12.7686
-12.75
-12.7299
-12.7078
-12.6832
-12.6557
-12.6246
-12.5893
-12.5491
-12.5031
-12.4503
-12.3893
-12.3186
-12.2362
-12.1397
-12.0261
-11.8918
-11.7329
-11.5453
-11.326
-11.0753
-10.8001
-10.5227
-10.3183
-10.3181
-15.6163
-15.4385
-15.056
-14.6495
-14.2934
-14.0004
-13.7649
-13.5777
-13.429
-13.3106
-13.2158
-13.1393
-13.0773
-13.0265
-12.9847
-12.9501
-12.921
-12.8963
-12.8751
-12.8565
-12.8398
-12.8243
-12.8095
-12.795
-12.7801
-12.7646
-12.748
-12.7298
-12.7096
-12.6869
-12.6612
-12.6321
-12.5987
-12.5605
-12.5163
-12.4651
-12.4055
-12.3355
-12.2529
-12.1545
-12.0361
-11.8926
-11.7169
-11.5005
-11.2333
-10.9056
-10.5121
-10.0666
-9.64703
-9.43314
-17.0193
-16.256
-15.5101
-14.8816
-14.3886
-14.019
-13.7446
-13.5391
-13.3833
-13.2635
-13.1702
-13.0965
-13.0378
-12.9906
-12.9523
-12.9209
-12.8949
-12.8732
-12.8548
-12.8388
-12.8246
-12.8116
-12.7992
-12.7869
-12.7744
-12.7612
-12.7468
-12.7308
-12.713
-12.6927
-12.6695
-12.6429
-12.6122
-12.5768
-12.5356
-12.4874
-12.431
-12.3641
-12.2844
-12.1881
-12.0703
-11.924
-11.7392
-11.5017
-11.1914
-10.7807
-10.2399
-9.55843
-8.75703
-7.92421
-19.8523
-17.2534
-15.8331
-14.9444
-14.3337
-13.9192
-13.6359
-13.4358
-13.2899
-13.1809
-13.0976
-13.033
-12.9821
-12.9417
-12.9093
-12.8832
-12.862
-12.8446
-12.83
-12.8176
-12.8068
-12.797
-12.7877
-12.7784
-12.7688
-12.7584
-12.7469
-12.7339
-12.719
-12.7018
-12.6819
-12.6588
-12.6318
-12.6005
-12.5638
-12.5207
-12.47
-12.4097
-12.3374
-12.2496
-12.1412
-12.0048
-11.8287
-11.5946
-11.2723
-10.8116
-10.1432
-9.18258
-7.67543
-4.9552
-24.7213
-18.3365
-15.6691
-14.5676
-13.9669
-13.6079
-13.3837
-13.2335
-13.1264
-13.0468
-12.9861
-12.9391
-12.9023
-12.8733
-12.8504
-12.8324
-12.8182
-12.8069
-12.7979
-12.7906
-12.7845
-12.779
-12.7739
-12.7686
-12.7629
-12.7564
-12.7487
-12.7397
-12.7288
-12.7158
-12.7004
-12.6821
-12.6604
-12.6349
-12.605
-12.5697
-12.5281
-12.4789
-12.4203
-12.3497
-12.2633
-12.1556
-12.0172
-11.8317
-11.5674
-11.1603
-10.4942
-9.29776
-6.51214
7.41117e-05
)
;

boundaryField
{
    movingWallTop
    {
        type            zeroGradient;
    }
    movingWallBottom
    {
        type            zeroGradient;
    }
    fixedWalls
    {
        type            zeroGradient;
    }
    frontAndBack
    {
        type            empty;
    }
}


// ************************************************************************* //
