/*--------------------------------*- C++ -*----------------------------------*\
  =========                 |
  \\      /  F ield         | OpenFOAM: The Open Source CFD Toolbox
   \\    /   O peration     | Website:  https://openfoam.org
    \\  /    A nd           | Version:  7
     \\/     M anipulation  |
\*---------------------------------------------------------------------------*/
FoamFile
{
    version     2.0;
    format      ascii;
    class       volVectorField;
    location    "0.0734";
    object      U;
}
// * * * * * * * * * * * * * * * * * * * * * * * * * * * * * * * * * * * * * //

dimensions      [0 1 -1 0 0 0 0];

internalField   nonuniform List<vector> 
2500
(
(-0.293795 0.153717 0)
(-0.397925 0.128717 0)
(-0.577966 0.0737926 0)
(-0.696272 0.0408791 0)
(-0.765283 0.0234021 0)
(-0.809654 0.0141522 0)
(-0.840286 0.00916953 0)
(-0.862428 0.00636419 0)
(-0.87911 0.0046775 0)
(-0.892116 0.00358959 0)
(-0.902518 0.00284235 0)
(-0.910995 0.00230179 0)
(-0.917999 0.00189409 0)
(-0.923843 0.00157594 0)
(-0.928748 0.00132037 0)
(-0.932878 0.0011097 0)
(-0.936352 0.000931827 0)
(-0.939259 0.000778197 0)
(-0.941666 0.00064257 0)
(-0.943624 0.00052028 0)
(-0.945171 0.000407755 0)
(-0.946334 0.00030219 0)
(-0.947133 0.000201329 0)
(-0.94758 0.000103298 0)
(-0.947683 6.48642e-06 0)
(-0.947444 -9.05917e-05 0)
(-0.94686 -0.000189301 0)
(-0.945924 -0.000291034 0)
(-0.944623 -0.000397284 0)
(-0.942941 -0.000509744 0)
(-0.940854 -0.000630434 0)
(-0.938332 -0.000761871 0)
(-0.935335 -0.000907303 0)
(-0.931812 -0.00107105 0)
(-0.927696 -0.00125901 0)
(-0.922898 -0.00147947 0)
(-0.917304 -0.00174438 0)
(-0.910753 -0.00207165 0)
(-0.90303 -0.00248927 0)
(-0.893825 -0.00304316 0)
(-0.882688 -0.0038129 0)
(-0.86894 -0.00494401 0)
(-0.851495 -0.00671531 0)
(-0.828556 -0.00967819 0)
(-0.797107 -0.0149203 0)
(-0.752003 -0.0244958 0)
(-0.682496 -0.0421405 0)
(-0.564895 -0.074606 0)
(-0.389292 -0.128115 0)
(-0.290201 -0.152367 0)
(-0.00515722 0.302896 0)
(-0.0270661 0.307345 0)
(-0.171369 0.217815 0)
(-0.308307 0.146627 0)
(-0.417323 0.0992763 0)
(-0.502679 0.0690353 0)
(-0.569214 0.0497987 0)
(-0.621328 0.0372697 0)
(-0.662699 0.0287945 0)
(-0.696048 0.0228258 0)
(-0.723307 0.0184615 0)
(-0.745851 0.0151622 0)
(-0.764668 0.0125936 0)
(-0.780477 0.0105408 0)
(-0.793811 0.00886076 0)
(-0.805066 0.00745467 0)
(-0.814543 0.00625262 0)
(-0.822469 0.00520373 0)
(-0.829017 0.00427013 0)
(-0.834321 0.00342303 0)
(-0.838479 0.00264003 0)
(-0.841564 0.00190335 0)
(-0.843631 0.00119852 0)
(-0.844713 0.000513384 0)
(-0.844832 -0.00016261 0)
(-0.843994 -0.000839047 0)
(-0.842193 -0.00152504 0)
(-0.839412 -0.00222977 0)
(-0.83562 -0.00296306 0)
(-0.830774 -0.00373592 0)
(-0.824814 -0.00456142 0)
(-0.817662 -0.00545557 0)
(-0.809217 -0.00643874 0)
(-0.799349 -0.00753751 0)
(-0.78789 -0.00878737 0)
(-0.774623 -0.0102368 0)
(-0.759264 -0.0119535 0)
(-0.741437 -0.0140342 0)
(-0.72064 -0.0166212 0)
(-0.696194 -0.0199294 0)
(-0.667166 -0.0242947 0)
(-0.632261 -0.0302583 0)
(-0.589672 -0.0387166 0)
(-0.536885 -0.0511822 0)
(-0.470584 -0.070184 0)
(-0.386918 -0.0996707 0)
(-0.281695 -0.145065 0)
(-0.151424 -0.212568 0)
(-0.0163965 -0.298145 0)
(-0.000975121 -0.294651 0)
(0.0321088 0.264051 0)
(0.0563317 0.362382 0)
(-0.00375937 0.325076 0)
(-0.0961514 0.260692 0)
(-0.192698 0.201086 0)
(-0.2817 0.154098 0)
(-0.359031 0.119202 0)
(-0.424474 0.0936463 0)
(-0.479376 0.0747961 0)
(-0.525414 0.0606637 0)
(-0.564134 0.049854 0)
(-0.596831 0.0414093 0)
(-0.624546 0.034672 0)
(-0.648099 0.0291856 0)
(-0.668131 0.0246282 0)
(-0.685143 0.0207684 0)
(-0.699526 0.0174368 0)
(-0.711584 0.0145071 0)
(-0.721555 0.0118833 0)
(-0.729622 0.00949124 0)
(-0.735927 0.00727259 0)
(-0.740574 0.00518045 0)
(-0.743642 0.00317627 0)
(-0.745182 0.00122749 0)
(-0.745225 -0.000694305 0)
(-0.743784 -0.00261494 0)
(-0.740854 -0.00455906 0)
(-0.736412 -0.00655138 0)
(-0.730418 -0.00861812 0)
(-0.722814 -0.0107886 0)
(-0.71352 -0.0130969 0)
(-0.702431 -0.0155846 0)
(-0.689415 -0.0183037 0)
(-0.674301 -0.0213207 0)
(-0.656875 -0.0247231 0)
(-0.636865 -0.0286273 0)
(-0.613924 -0.0331911 0)
(-0.587614 -0.0386321 0)
(-0.557374 -0.0452549 0)
(-0.522496 -0.0534918 0)
(-0.48209 -0.0639643 0)
(-0.435067 -0.0775709 0)
(-0.380162 -0.0956034 0)
(-0.316082 -0.11987 0)
(-0.241959 -0.152709 0)
(-0.158485 -0.196448 0)
(-0.0699681 -0.25126 0)
(0.0122972 -0.309829 0)
(0.0620585 -0.343139 0)
(0.0330451 -0.249854 0)
(0.0271373 0.205279 0)
(0.06365 0.357994 0)
(0.0548471 0.375986 0)
(0.007297 0.339002 0)
(-0.0606068 0.286505 0)
(-0.134526 0.235766 0)
(-0.206298 0.192543 0)
(-0.272138 0.157528 0)
(-0.330771 0.129667 0)
(-0.38218 0.107544 0)
(-0.426899 0.089865 0)
(-0.465642 0.0755785 0)
(-0.499132 0.0638758 0)
(-0.528023 0.054145 0)
(-0.552879 0.0459256 0)
(-0.574173 0.0388695 0)
(-0.592292 0.0327119 0)
(-0.607553 0.0272489 0)
(-0.620209 0.0223218 0)
(-0.630462 0.0178056 0)
(-0.638471 0.0135998 0)
(-0.644356 0.00962294 0)
(-0.648208 0.00580718 0)
(-0.650089 0.00209478 0)
(-0.65004 -0.00156493 0)
(-0.648077 -0.00521808 0)
(-0.6442 -0.00890856 0)
(-0.638388 -0.0126802 0)
(-0.630599 -0.0165791 0)
(-0.620775 -0.0206559 0)
(-0.608833 -0.0249693 0)
(-0.594667 -0.0295889 0)
(-0.578143 -0.0346007 0)
(-0.559093 -0.0401125 0)
(-0.537311 -0.0462621 0)
(-0.512546 -0.0532284 0)
(-0.484493 -0.0612456 0)
(-0.452788 -0.0706232 0)
(-0.417008 -0.0817716 0)
(-0.376675 -0.0952355 0)
(-0.33129 -0.111731 0)
(-0.280413 -0.132179 0)
(-0.223833 -0.157693 0)
(-0.16191 -0.189458 0)
(-0.096197 -0.228279 0)
(-0.0304969 -0.273349 0)
(0.0275471 -0.319327 0)
(0.0649479 -0.350658 0)
(0.0657573 -0.331795 0)
(0.0268801 -0.189834 0)
(0.0184323 0.163564 0)
(0.0529436 0.331956 0)
(0.0680615 0.387679 0)
(0.0519544 0.380694 0)
(0.0117989 0.345297 0)
(-0.0416753 0.301049 0)
(-0.100294 0.257508 0)
(-0.158844 0.218519 0)
(-0.214375 0.185088 0)
(-0.265453 0.156965 0)
(-0.311557 0.133448 0)
(-0.352666 0.113751 0)
(-0.38901 0.0971447 0)
(-0.420922 0.0830123 0)
(-0.448762 0.0708471 0)
(-0.472873 0.0602413 0)
(-0.493564 0.0508686 0)
(-0.511103 0.0424679 0)
(-0.525718 0.0348291 0)
(-0.537597 0.0277825 0)
(-0.546891 0.0211891 0)
(-0.553721 0.0149338 0)
(-0.558178 0.00891968 0)
(-0.560329 0.0030635 0)
(-0.560219 -0.00270827 0)
(-0.55787 -0.00846271 0)
(-0.553286 -0.0142634 0)
(-0.546454 -0.0201735 0)
(-0.537343 -0.0262585 0)
(-0.525903 -0.0325894 0)
(-0.512066 -0.0392467 0)
(-0.495745 -0.0463245 0)
(-0.476833 -0.0539358 0)
(-0.455201 -0.0622189 0)
(-0.430696 -0.0713457 0)
(-0.403146 -0.0815311 0)
(-0.37236 -0.0930453 0)
(-0.338142 -0.106227 0)
(-0.300307 -0.121496 0)
(-0.258728 -0.139362 0)
(-0.213412 -0.16042 0)
(-0.164625 -0.185298 0)
(-0.113117 -0.214527 0)
(-0.0604652 -0.248216 0)
(-0.00955669 -0.285364 0)
(0.034837 -0.322495 0)
(0.0655418 -0.351206 0)
(0.073425 -0.354361 0)
(0.0532089 -0.301677 0)
(0.0179169 -0.148243 0)
(0.011925 0.134863 0)
(0.0406147 0.30125 0)
(0.0646854 0.37914 0)
(0.0673785 0.397166 0)
(0.0484991 0.380938 0)
(0.0141152 0.348266 0)
(-0.0294932 0.309918 0)
(-0.0773139 0.271685 0)
(-0.125814 0.236286 0)
(-0.172746 0.204707 0)
(-0.216809 0.177049 0)
(-0.257337 0.153002 0)
(-0.294062 0.132106 0)
(-0.326953 0.113876 0)
(-0.356103 0.0978585 0)
(-0.381671 0.0836571 0)
(-0.403835 0.0709312 0)
(-0.422776 0.059395 0)
(-0.438659 0.048809 0)
(-0.451632 0.0389733 0)
(-0.461821 0.0297202 0)
(-0.46933 0.0209077 0)
(-0.474242 0.0124146 0)
(-0.476619 0.00413524 0)
(-0.476506 -0.00402417 0)
(-0.473932 -0.0121494 0)
(-0.468908 -0.0203214 0)
(-0.461431 -0.02862 0)
(-0.451485 -0.0371264 0)
(-0.439042 -0.0459278 0)
(-0.42406 -0.0551201 0)
(-0.406489 -0.064813 0)
(-0.386267 -0.0751345 0)
(-0.363327 -0.0862364 0)
(-0.337601 -0.0983003 0)
(-0.309027 -0.111544 0)
(-0.277565 -0.126226 0)
(-0.243216 -0.142648 0)
(-0.206064 -0.161152 0)
(-0.166331 -0.182097 0)
(-0.124468 -0.20581 0)
(-0.0812882 -0.232474 0)
(-0.0381536 -0.261916 0)
(0.00278674 -0.293205 0)
(0.0383613 -0.323952 0)
(0.0642782 -0.349191 0)
(0.075369 -0.35976 0)
(0.0668986 -0.340435 0)
(0.0400803 -0.268982 0)
(0.0114453 -0.119976 0)
(0.00783452 0.114444 0)
(0.0308246 0.272302 0)
(0.0566547 0.361622 0)
(0.069305 0.397954 0)
(0.0649173 0.399012 0)
(0.0458571 0.379315 0)
(0.0161137 0.349111 0)
(-0.0203221 0.314927 0)
(-0.0601121 0.280552 0)
(-0.100764 0.247962 0)
(-0.140561 0.218028 0)
(-0.178394 0.190988 0)
(-0.213598 0.166743 0)
(-0.245806 0.145036 0)
(-0.274851 0.12555 0)
(-0.30069 0.107961 0)
(-0.323349 0.0919635 0)
(-0.342897 0.0772837 0)
(-0.359417 0.0636793 0)
(-0.372999 0.0509401 0)
(-0.383726 0.0388837 0)
(-0.391675 0.0273521 0)
(-0.396911 0.0162075 0)
(-0.399486 0.00532844 0)
(-0.399442 -0.00539392 0)
(-0.39681 -0.0160593 0)
(-0.391609 -0.0267615 0)
(-0.383852 -0.0375918 0)
(-0.37354 -0.0486419 0)
(-0.360672 -0.0600076 0)
(-0.345241 -0.0717919 0)
(-0.327241 -0.0841088 0)
(-0.306669 -0.0970865 0)
(-0.283532 -0.110871 0)
(-0.257856 -0.12563 0)
(-0.2297 -0.141549 0)
(-0.199173 -0.158837 0)
(-0.16647 -0.177707 0)
(-0.131906 -0.198361 0)
(-0.0959803 -0.220944 0)
(-0.0594534 -0.245462 0)
(-0.0234526 -0.271639 0)
(0.0104125 -0.298682 0)
(0.039943 -0.324895 0)
(0.0623331 -0.347113 0)
(0.0743776 -0.359934 0)
(0.0730469 -0.354867 0)
(0.0568519 -0.319746 0)
(0.0299333 -0.239395 0)
(0.00743482 -0.100128 0)
(0.00538411 0.099473 0)
(0.0237827 0.246909 0)
(0.0483399 0.340922 0)
(0.0655735 0.389611 0)
(0.0703238 0.404705 0)
(0.0625706 0.3973 0)
(0.0443462 0.376275 0)
(0.0184125 0.348025 0)
(-0.0124871 0.316793 0)
(-0.0460142 0.285192 0)
(-0.0803484 0.254697 0)
(-0.114158 0.226046 0)
(-0.146515 0.199519 0)
(-0.176804 0.175128 0)
(-0.204633 0.15274 0)
(-0.229775 0.132152 0)
(-0.252108 0.113136 0)
(-0.27158 0.0954614 0)
(-0.288187 0.0789099 0)
(-0.301949 0.0632816 0)
(-0.312898 0.0483962 0)
(-0.321075 0.0340922 0)
(-0.326521 0.0202257 0)
(-0.329274 0.00666775 0)
(-0.329368 -0.00669847 0)
(-0.326835 -0.0199801 0)
(-0.321702 -0.0332774 0)
(-0.313995 -0.0466867 0)
(-0.303736 -0.0603031 0)
(-0.290954 -0.074223 0)
(-0.275678 -0.0885466 0)
(-0.257951 -0.10338 0)
(-0.237829 -0.118839 0)
(-0.215393 -0.135044 0)
(-0.190761 -0.152128 0)
(-0.164102 -0.170222 0)
(-0.135659 -0.189451 0)
(-0.105778 -0.209915 0)
(-0.0749451 -0.231647 0)
(-0.0438379 -0.254566 0)
(-0.0133801 -0.278371 0)
(0.0151972 -0.302402 0)
(0.0403092 -0.32542 0)
(0.0600193 -0.345294 0)
(0.0721582 -0.358605 0)
(0.0746634 -0.36021 0)
(0.0661951 -0.342912 0)
(0.0472141 -0.297564 0)
(0.0226931 -0.214216 0)
(0.00504129 -0.0857891 0)
(0.00389745 0.0880973 0)
(0.0188044 0.225132 0)
(0.0410638 0.319896 0)
(0.0598788 0.376393 0)
(0.0700197 0.402189 0)
(0.070153 0.405438 0)
(0.0608992 0.393401 0)
(0.0439112 0.371856 0)
(0.0212174 0.345042 0)
(-0.00520985 0.315864 0)
(-0.0336648 0.286197 0)
(-0.0627735 0.25717 0)
(-0.0914839 0.229397 0)
(-0.119021 0.203159 0)
(-0.144835 0.178524 0)
(-0.168546 0.155436 0)
(-0.189903 0.133769 0)
(-0.208747 0.113364 0)
(-0.224982 0.0940478 0)
(-0.238561 0.0756513 0)
(-0.249462 0.0580112 0)
(-0.257685 0.0409763 0)
(-0.263243 0.0244073 0)
(-0.266155 0.00817714 0)
(-0.266448 -0.00783059 0)
(-0.26415 -0.023723 0)
(-0.259294 -0.0395998 0)
(-0.251918 -0.0555552 0)
(-0.242067 -0.0716799 0)
(-0.229794 -0.0880626 0)
(-0.215166 -0.104791 0)
(-0.19827 -0.121955 0)
(-0.179219 -0.139641 0)
(-0.158158 -0.157936 0)
(-0.135285 -0.176918 0)
(-0.110856 -0.19665 0)
(-0.0852164 -0.217163 0)
(-0.0588159 -0.238426 0)
(-0.0322445 -0.260313 0)
(-0.00626297 -0.282531 0)
(0.0181655 -0.304534 0)
(0.0398551 -0.325388 0)
(0.0574067 -0.343594 0)
(0.0692767 -0.356868 0)
(0.0739594 -0.361894 0)
(0.0703404 -0.354135 0)
(0.0582165 -0.327814 0)
(0.0390305 -0.276297 0)
(0.0175768 -0.193214 0)
(0.00358646 -0.075086 0)
(0.00295763 0.0791411 0)
(0.0152361 0.206516 0)
(0.035039 0.299839 0)
(0.0538562 0.360905 0)
(0.066923 0.394509 0)
(0.0723108 0.4065 0)
(0.0697335 0.402603 0)
(0.0599764 0.387777 0)
(0.0443953 0.365966 0)
(0.0245229 0.340111 0)
(0.00182941 0.312286 0)
(-0.0223961 0.283882 0)
(-0.0470872 0.255778 0)
(-0.0713989 0.228486 0)
(-0.0946824 0.202269 0)
(-0.116454 0.177223 0)
(-0.136361 0.153338 0)
(-0.154153 0.130542 0)
(-0.169658 0.108725 0)
(-0.182762 0.087762 0)
(-0.193393 0.0675217 0)
(-0.20151 0.0478749 0)
(-0.207095 0.0286979 0)
(-0.21015 0.00987483 0)
(-0.210687 -0.00870197 0)
(-0.208732 -0.0271319 0)
(-0.204321 -0.0455067 0)
(-0.197502 -0.0639114 0)
(-0.188337 -0.082425 0)
(-0.176903 -0.101121 0)
(-0.163298 -0.120067 0)
(-0.147648 -0.139325 0)
(-0.13011 -0.158949 0)
(-0.110884 -0.178977 0)
(-0.0902264 -0.199429 0)
(-0.0684582 -0.220291 0)
(-0.0459869 -0.241496 0)
(-0.023322 -0.262895 0)
(-0.00109498 -0.284214 0)
(0.0199243 -0.304998 0)
(0.0388192 -0.324523 0)
(0.0545368 -0.341692 0)
(0.0659316 -0.354907 0)
(0.0718674 -0.361928 0)
(0.0714093 -0.359744 0)
(0.0641325 -0.34454 0)
(0.0505091 -0.311831 0)
(0.0323579 -0.256908 0)
(0.0139018 -0.17576 0)
(0.00266324 -0.0668404 0)
(0.00233225 0.0718772 0)
(0.0126109 0.190528 0)
(0.0301244 0.281255 0)
(0.0481606 0.344669 0)
(0.06259 0.383764 0)
(0.0713133 0.402668 0)
(0.0735232 0.405791 0)
(0.0693879 0.397244 0)
(0.0597049 0.380535 0)
(0.0455797 0.358461 0)
(0.0281998 0.333139 0)
(0.00869638 0.306103 0)
(-0.0119277 0.278411 0)
(-0.0328263 0.250762 0)
(-0.0533106 0.223585 0)
(-0.0728357 0.197118 0)
(-0.0909805 0.171471 0)
(-0.107427 0.146664 0)
(-0.121939 0.122659 0)
(-0.134349 0.0993875 0)
(-0.144536 0.0767605 0)
(-0.152425 0.0546808 0)
(-0.157968 0.0330496 0)
(-0.161146 0.0117708 0)
(-0.161958 -0.00924658 0)
(-0.160425 -0.0300871 0)
(-0.156582 -0.0508276 0)
(-0.150486 -0.0715375 0)
(-0.14221 -0.0922774 0)
(-0.131851 -0.113099 0)
(-0.119531 -0.134044 0)
(-0.105405 -0.155142 0)
(-0.0896627 -0.176404 0)
(-0.0725438 -0.197819 0)
(-0.0543415 -0.219346 0)
(-0.0354163 -0.240893 0)
(-0.0162065 -0.262305 0)
(0.00275995 -0.283328 0)
(0.0208567 -0.303574 0)
(0.0373562 -0.322466 0)
(0.0514389 -0.339175 0)
(0.0622219 -0.352538 0)
(0.0688214 -0.360972 0)
(0.0704609 -0.362397 0)
(0.0666452 -0.354198 0)
(0.057405 -0.333262 0)
(0.04356 -0.296182 0)
(0.0269693 -0.239663 0)
(0.0111933 -0.161214 0)
(0.00204687 -0.0603217 0)
(0.00189397 0.0658479 0)
(0.0106206 0.176702 0)
(0.0261026 0.264275 0)
(0.0430017 0.328553 0)
(0.0578229 0.371361 0)
(0.0685237 0.395584 0)
(0.0740388 0.404562 0)
(0.0741311 0.40163 0)
(0.0691708 0.389804 0)
(0.0598928 0.37164 0)
(0.047203 0.349189 0)
(0.032043 0.324025 0)
(0.0153059 0.297312 0)
(-0.00221089 0.269877 0)
(-0.019824 0.242285 0)
(-0.0369663 0.214898 0)
(-0.0531792 0.187933 0)
(-0.0680998 0.161504 0)
(-0.0814472 0.135649 0)
(-0.0930088 0.110361 0)
(-0.102629 0.0855999 0)
(-0.110196 0.0613086 0)
(-0.11564 0.0374205 0)
(-0.11892 0.0138665 0)
(-0.120023 -0.00942117 0)
(-0.118961 -0.0325057 0)
(-0.11577 -0.0554433 0)
(-0.110506 -0.0782817 0)
(-0.103253 -0.101058 0)
(-0.0941186 -0.123799 0)
(-0.0832423 -0.146513 0)
(-0.0707969 -0.169194 0)
(-0.0569959 -0.19181 0)
(-0.0420991 -0.214299 0)
(-0.0264202 -0.236559 0)
(-0.0103342 -0.25843 0)
(0.00571584 -0.279679 0)
(0.0212142 -0.299967 0)
(0.0355718 -0.318824 0)
(0.0481336 -0.335599 0)
(0.0581985 -0.349411 0)
(0.0650589 -0.359102 0)
(0.0680664 -0.363179 0)
(0.0667335 -0.359784 0)
(0.0608774 -0.346705 0)
(0.0508019 -0.321458 0)
(0.0374645 -0.281492 0)
(0.022598 -0.224522 0)
(0.00913992 -0.149037 0)
(0.00161439 -0.0550662 0)
(0.00157194 0.060755 0)
(0.00906557 0.164661 0)
(0.0227722 0.248869 0)
(0.0383982 0.313037 0)
(0.0530163 0.358235 0)
(0.0647481 0.386456 0)
(0.0724374 0.400203 0)
(0.0756024 0.402135 0)
(0.074307 0.394795 0)
(0.0689867 0.380447 0)
(0.0602943 0.361004 0)
(0.048979 0.338013 0)
(0.035802 0.312675 0)
(0.0214818 0.2859 0)
(0.00666333 0.258346 0)
(-0.00809504 0.230478 0)
(-0.0223237 0.202608 0)
(-0.0356372 0.174934 0)
(-0.0477262 0.14757 0)
(-0.0583483 0.120571 0)
(-0.0673183 0.0939498 0)
(-0.0745005 0.0676941 0)
(-0.0798009 0.0417749 0)
(-0.0831618 0.0161554 0)
(-0.0845575 -0.0092037 0)
(-0.0839912 -0.0343391 0)
(-0.0814935 -0.0592815 0)
(-0.077122 -0.0840531 0)
(-0.0709618 -0.108664 0)
(-0.0631277 -0.133109 0)
(-0.0537667 -0.157366 0)
(-0.0430615 -0.181388 0)
(-0.0312349 -0.205103 0)
(-0.0185547 -0.228397 0)
(-0.00533804 -0.251114 0)
(0.00804412 -0.273034 0)
(0.0211646 -0.29386 0)
(0.0335403 -0.313193 0)
(0.0446383 -0.330505 0)
(0.0538896 -0.345108 0)
(0.0607146 -0.356119 0)
(0.0645658 -0.362426 0)
(0.0649901 -0.362668 0)
(0.0617166 -0.355227 0)
(0.0547689 -0.33827 0)
(0.0445941 -0.309842 0)
(0.0321626 -0.268049 0)
(0.0190117 -0.211329 0)
(0.00753968 -0.138797 0)
(0.00129708 -0.0507684 0)
(0.00132536 0.0563974 0)
(0.00781517 0.154114 0)
(0.0199698 0.234946 0)
(0.0342955 0.298382 0)
(0.0483489 0.345 0)
(0.0604559 0.376159 0)
(0.0694688 0.393719 0)
(0.0747752 0.399774 0)
(0.0762321 0.396434 0)
(0.0740466 0.385667 0)
(0.0686581 0.369209 0)
(0.0606379 0.348527 0)
(0.0506117 0.324817 0)
(0.0392031 0.299023 0)
(0.0269979 0.271867 0)
(0.0145236 0.243889 0)
(0.00223928 0.215479 0)
(-0.00946573 0.186909 0)
(-0.0202694 0.158363 0)
(-0.0299119 0.129955 0)
(-0.0381888 0.101754 0)
(-0.0449455 0.0737927 0)
(-0.0500706 0.0460833 0)
(-0.0534916 0.0186245 0)
(-0.0551705 -0.00859049 0)
(-0.0551015 -0.0355685 0)
(-0.0533087 -0.0623116 0)
(-0.0498459 -0.0888127 0)
(-0.0447969 -0.115052 0)
(-0.0382763 -0.140994 0)
(-0.0304319 -0.166579 0)
(-0.0214471 -0.191726 0)
(-0.0115439 -0.216318 0)
(-0.000985916 -0.240199 0)
(0.00991935 -0.263162 0)
(0.0208189 -0.284938 0)
(0.031315 -0.305181 0)
(0.0409701 -0.32345 0)
(0.0493159 -0.339184 0)
(0.0558712 -0.351687 0)
(0.0601692 -0.360101 0)
(0.0617985 -0.363392 0)
(0.0604589 -0.360343 0)
(0.0560318 -0.349572 0)
(0.0486658 -0.329579 0)
(0.0388652 -0.29884 0)
(0.0275435 -0.255965 0)
(0.0160258 -0.199897 0)
(0.00625959 -0.130162 0)
(0.0010551 -0.04722 0)
(0.00112972 0.0526351 0)
(0.00678259 0.144838 0)
(0.0175695 0.222398 0)
(0.0306176 0.28472 0)
(0.043888 0.332063 0)
(0.0559157 0.365329 0)
(0.0656166 0.385889 0)
(0.0723252 0.39538 0)
(0.075768 0.395533 0)
(0.0759858 0.388031 0)
(0.0732474 0.374422 0)
(0.0679693 0.356067 0)
(0.0606486 0.334117 0)
(0.0518104 0.309519 0)
(0.0419701 0.28303 0)
(0.0316095 0.255241 0)
(0.0211619 0.226601 0)
(0.0110054 0.197446 0)
(0.00146141 0.168019 0)
(-0.00720396 0.138492 0)
(-0.0147763 0.108985 0)
(-0.0210888 0.0795773 0)
(-0.0260176 0.0503223 0)
(-0.0294784 0.0212564 0)
(-0.0314226 -0.00759281 0)
(-0.0318349 -0.0362001 0)
(-0.0307317 -0.0645364 0)
(-0.0281604 -0.0925644 0)
(-0.024199 -0.120233 0)
(-0.0189571 -0.147474 0)
(-0.0125768 -0.174196 0)
(-0.00523471 -0.200278 0)
(0.00285661 -0.225566 0)
(0.0114471 -0.249863 0)
(0.0202485 -0.272922 0)
(0.0289355 -0.294435 0)
(0.0371484 -0.314017 0)
(0.0445006 -0.331201 0)
(0.0505901 -0.345415 0)
(0.0550182 -0.355971 0)
(0.0574165 -0.362056 0)
(0.0574836 -0.362726 0)
(0.0550319 -0.356909 0)
(0.0500438 -0.343438 0)
(0.0427341 -0.321097 0)
(0.0336087 -0.288707 0)
(0.0234901 -0.245256 0)
(0.0134983 -0.190048 0)
(0.00521015 -0.122878 0)
(0.00086428 -0.0442748 0)
(0.000969643 0.0493682 0)
(0.00590861 0.136664 0)
(0.0154757 0.211124 0)
(0.0272892 0.272118 0)
(0.0396455 0.319691 0)
(0.0512774 0.354423 0)
(0.0611922 0.377311 0)
(0.068721 0.389628 0)
(0.0735168 0.39278 0)
(0.0755052 0.388194 0)
(0.074824 0.377232 0)
(0.071761 0.361132 0)
(0.0666983 0.340982 0)
(0.0600656 0.317706 0)
(0.0523049 0.292072 0)
(0.0438438 0.264701 0)
(0.0350793 0.236086 0)
(0.0263675 0.206612 0)
(0.0180184 0.176574 0)
(0.0102949 0.146194 0)
(0.00341344 0.11564 0)
(-0.0024534 0.0850353 0)
(-0.00717427 0.054474 0)
(-0.010656 0.0240304 0)
(-0.0128412 -0.00623333 0)
(-0.0137055 -0.0362588 0)
(-0.0132568 -0.0659857 0)
(-0.0115338 -0.0953452 0)
(-0.00860554 -0.124256 0)
(-0.00457222 -0.152616 0)
(0.000434723 -0.180303 0)
(0.00625165 -0.207161 0)
(0.012682 -0.233002 0)
(0.0194961 -0.257593 0)
(0.0264318 -0.280653 0)
(0.0331972 -0.301842 0)
(0.0394749 -0.320752 0)
(0.0449306 -0.336897 0)
(0.0492254 -0.349709 0)
(0.0520341 -0.358521 0)
(0.0530699 -0.362574 0)
(0.0521163 -0.361014 0)
(0.049065 -0.352908 0)
(0.0439594 -0.337276 0)
(0.0370391 -0.313136 0)
(0.0287786 -0.279585 0)
(0.0198952 -0.235893 0)
(0.0113212 -0.181623 0)
(0.00432951 -0.116748 0)
(0.000709244 -0.0418277 0)
(0.000835031 0.0465238 0)
(0.00515188 0.12946 0)
(0.0136168 0.201033 0)
(0.0242435 0.2606 0)
(0.0356074 0.308064 0)
(0.0466215 0.343775 0)
(0.0563958 0.368445 0)
(0.0642892 0.383058 0)
(0.0699212 0.388752 0)
(0.0731431 0.386728 0)
(0.0739957 0.378171 0)
(0.0726638 0.364197 0)
(0.069431 0.345817 0)
(0.0646398 0.323916 0)
(0.0586596 0.299255 0)
(0.0518613 0.272469 0)
(0.0445994 0.24408 0)
(0.0372001 0.214509 0)
(0.0299545 0.184093 0)
(0.0231143 0.153099 0)
(0.0168915 0.121734 0)
(0.0114586 0.090166 0)
(0.00695015 0.0585257 0)
(0.00346475 0.026924 0)
(0.00106697 -0.00454285 0)
(-0.000210881 -0.0357841 0)
(-0.000367434 -0.0667081 0)
(0.000568764 -0.0972158 0)
(0.00253968 -0.127195 0)
(0.00545799 -0.156515 0)
(0.00920698 -0.185021 0)
(0.0136404 -0.212526 0)
(0.0185825 -0.238812 0)
(0.0238287 -0.263615 0)
(0.0291473 -0.286627 0)
(0.0342827 -0.307482 0)
(0.0389609 -0.325755 0)
(0.0428981 -0.340957 0)
(0.045813 -0.352523 0)
(0.0474433 -0.359821 0)
(0.0475677 -0.362144 0)
(0.0460322 -0.358725 0)
(0.042781 -0.348755 0)
(0.0378887 -0.331412 0)
(0.0315921 -0.305909 0)
(0.0243149 -0.271553 0)
(0.0166666 -0.227831 0)
(0.00941228 -0.17449 0)
(0.00357382 -0.111623 0)
(0.00057979 -0.0398018 0)
(0.000719026 0.0440481 0)
(0.0044829 0.123127 0)
(0.0119381 0.192048 0)
(0.0214238 0.250171 0)
(0.0317493 0.297304 0)
(0.0419885 0.333627 0)
(0.0513564 0.359643 0)
(0.0592582 0.376104 0)
(0.0653082 0.383928 0)
(0.0693138 0.384123 0)
(0.0712478 0.377714 0)
(0.071215 0.3657 0)
(0.0694172 0.349009 0)
(0.0661201 0.32848 0)
(0.0616256 0.304853 0)
(0.0562477 0.278763 0)
(0.050296 0.250749 0)
(0.0440625 0.221258 0)
(0.0378133 0.190661 0)
(0.0317835 0.159259 0)
(0.026175 0.127297 0)
(0.0211554 0.0949774 0)
(0.0168586 0.0624685 0)
(0.0133855 0.029914 0)
(0.0108058 -0.00255743 0)
(0.00915898 -0.0348243 0)
(0.00845538 -0.0667654 0)
(0.00867737 -0.0982526 0)
(0.00977978 -0.129145 0)
(0.0116903 -0.159284 0)
(0.0143098 -0.188486 0)
(0.0175126 -0.216538 0)
(0.021147 -0.243192 0)
(0.0250364 -0.268161 0)
(0.0289818 -0.29111 0)
(0.0327649 -0.311659 0)
(0.0361543 -0.329371 0)
(0.0389133 -0.343754 0)
(0.0408111 -0.354258 0)
(0.0416382 -0.36028 0)
(0.0412238 -0.361166 0)
(0.0394584 -0.35623 0)
(0.0363171 -0.344766 0)
(0.0318846 -0.326086 0)
(0.0263765 -0.299556 0)
(0.020156 -0.264651 0)
(0.0137274 -0.221018 0)
(0.00770847 -0.168538 0)
(0.00291132 -0.107388 0)
(0.000468898 -0.0381404 0)
(0.000616816 0.0419007 0)
(0.00388015 0.117587 0)
(0.0103983 0.184106 0)
(0.0187838 0.240828 0)
(0.028044 0.287493 0)
(0.0373962 0.324161 0)
(0.0461574 0.351175 0)
(0.0537899 0.369107 0)
(0.0599214 0.378698 0)
(0.0643387 0.380791 0)
(0.0669695 0.376272 0)
(0.0678587 0.36603 0)
(0.0671422 0.350914 0)
(0.0650199 0.33171 0)
(0.0617324 0.30913 0)
(0.0575401 0.2838 0)
(0.052707 0.256266 0)
(0.0474887 0.226993 0)
(0.0421227 0.196373 0)
(0.0368237 0.164738 0)
(0.0317789 0.132363 0)
(0.0271471 0.099483 0)
(0.0230581 0.0662961 0)
(0.0196125 0.032977 0)
(0.0168829 -0.000316181 0)
(0.0149147 -0.0334337 0)
(0.0137269 -0.0662267 0)
(0.013313 -0.0985406 0)
(0.0136416 -0.130209 0)
(0.0146569 -0.161046 0)
(0.0162791 -0.190844 0)
(0.0184051 -0.219365 0)
(0.0209092 -0.246338 0)
(0.0236445 -0.271453 0)
(0.0264452 -0.294358 0)
(0.0291304 -0.314657 0)
(0.0315088 -0.331907 0)
(0.0333868 -0.345617 0)
(0.0345776 -0.355252 0)
(0.0349143 -0.360237 0)
(0.0342646 -0.359966 0)
(0.0325483 -0.35382 0)
(0.0297558 -0.341181 0)
(0.0259664 -0.32147 0)
(0.0213635 -0.294174 0)
(0.0162447 -0.258897 0)
(0.0110147 -0.215406 0)
(0.00616107 -0.163681 0)
(0.00231848 -0.103956 0)
(0.000371582 -0.036801 0)
(0.000524932 0.0400509 0)
(0.00332766 0.112782 0)
(0.00896552 0.177158 0)
(0.0162854 0.23256 0)
(0.0244652 0.278686 0)
(0.0328494 0.315509 0)
(0.0408529 0.343248 0)
(0.0479997 0.36234 0)
(0.0539443 0.37338 0)
(0.0584692 0.377076 0)
(0.0614751 0.374196 0)
(0.0629641 0.365529 0)
(0.0630199 0.351849 0)
(0.0617877 0.333892 0)
(0.0594538 0.312334 0)
(0.0562289 0.28779 0)
(0.0523331 0.260801 0)
(0.0479847 0.231844 0)
(0.043391 0.201327 0)
(0.0387429 0.169603 0)
(0.0342102 0.136974 0)
(0.0299397 0.103699 0)
(0.0260538 0.0700034 0)
(0.0226506 0.0360894 0)
(0.0198037 0.0021404 0)
(0.0175629 -0.0316685 0)
(0.0159552 -0.065164 0)
(0.0149849 -0.0981678 0)
(0.0146347 -0.13049 0)
(0.014866 -0.161923 0)
(0.0156195 -0.192236 0)
(0.0168156 -0.22117 0)
(0.0183555 -0.248433 0)
(0.0201227 -0.273699 0)
(0.0219846 -0.296599 0)
(0.0237963 -0.316725 0)
(0.0254045 -0.33363 0)
(0.026654 -0.346825 0)
(0.0273961 -0.355788 0)
(0.027498 -0.359969 0)
(0.0268556 -0.358802 0)
(0.0254069 -0.351722 0)
(0.0231457 -0.338184 0)
(0.0201353 -0.317692 0)
(0.0165198 -0.289829 0)
(0.0125299 -0.254297 0)
(0.00847673 -0.210953 0)
(0.00473215 -0.159849 0)
(0.00177757 -0.10126 0)
(0.000284209 -0.0357523 0)
(0.000440803 0.0384758 0)
(0.00281328 0.108665 0)
(0.00761478 0.171161 0)
(0.0138975 0.225358 0)
(0.0209884 0.270924 0)
(0.0283462 0.307769 0)
(0.0354778 0.336024 0)
(0.0419717 0.356016 0)
(0.0475167 0.368229 0)
(0.0519041 0.37326 0)
(0.055021 0.371778 0)
(0.0568401 0.364487 0)
(0.0574055 0.352091 0)
(0.0568169 0.335277 0)
(0.055214 0.31469 0)
(0.052762 0.290922 0)
(0.0496397 0.264511 0)
(0.0460284 0.235936 0)
(0.0421044 0.205616 0)
(0.038033 0.173919 0)
(0.0339644 0.141167 0)
(0.0300308 0.10764 0)
(0.026345 0.0735853 0)
(0.023 0.0392272 0)
(0.0200686 0.0047715 0)
(0.0176037 -0.0295853 0)
(0.0156391 -0.0636489 0)
(0.0141896 -0.0972206 0)
(0.0132516 -0.130091 0)
(0.0128039 -0.162032 0)
(0.0128079 -0.192795 0)
(0.013208 -0.222102 0)
(0.0139327 -0.249646 0)
(0.0148957 -0.275083 0)
(0.015997 -0.298033 0)
(0.0171262 -0.318079 0)
(0.0181653 -0.334767 0)
(0.0189942 -0.347611 0)
(0.0194962 -0.356098 0)
(0.0195666 -0.359698 0)
(0.0191215 -0.357876 0)
(0.0181079 -0.35011 0)
(0.0165149 -0.335909 0)
(0.014383 -0.314842 0)
(0.0118125 -0.286565 0)
(0.0089676 -0.25085 0)
(0.00607152 -0.207622 0)
(0.00339181 -0.156987 0)
(0.00127501 -0.0992497 0)
(0.000204063 -0.0349708 0)
(0.000362474 0.0371577 0)
(0.00232757 0.105201 0)
(0.00632624 0.166085 0)
(0.0115944 0.219212 0)
(0.0175918 0.264234 0)
(0.0238805 0.301016 0)
(0.0300546 0.329622 0)
(0.0357672 0.350301 0)
(0.0407473 0.363448 0)
(0.0448029 0.369572 0)
(0.0478184 0.369261 0)
(0.0497479 0.363145 0)
(0.0506058 0.351873 0)
(0.0504549 0.336084 0)
(0.0493946 0.31639 0)
(0.0475496 0.293365 0)
(0.0450597 0.267536 0)
(0.0420706 0.239379 0)
(0.0387274 0.209323 0)
(0.035169 0.177743 0)
(0.031524 0.144976 0)
(0.0279081 0.111318 0)
(0.0244227 0.0770343 0)
(0.0211536 0.0423658 0)
(0.0181709 0.00753659 0)
(0.0155294 -0.0272392 0)
(0.0132682 -0.0617501 0)
(0.0114117 -0.0957807 0)
(0.00996981 -0.129105 0)
(0.00893809 -0.16148 0)
(0.00829848 -0.192641 0)
(0.00801944 -0.222296 0)
(0.00805652 -0.250122 0)
(0.008353 -0.275764 0)
(0.00884096 -0.298831 0)
(0.0094429 -0.318896 0)
(0.0100741 -0.3355 0)
(0.0106459 -0.348158 0)
(0.0110701 -0.356362 0)
(0.0112644 -0.359595 0)
(0.0111593 -0.357344 0)
(0.0107052 -0.349115 0)
(0.00988016 -0.334458 0)
(0.00869746 -0.312988 0)
(0.00721128 -0.28441 0)
(0.0055203 -0.248552 0)
(0.00376456 -0.205387 0)
(0.00211619 -0.155056 0)
(0.000800137 -0.0978873 0)
(0.000129065 -0.0344397 0)
(0.000288406 0.0360837 0)
(0.00186296 0.102365 0)
(0.00508364 0.161904 0)
(0.00935441 0.214114 0)
(0.0142555 0.258636 0)
(0.0194442 0.295303 0)
(0.0245973 0.324136 0)
(0.0294322 0.345323 0)
(0.0337213 0.359193 0)
(0.0372955 0.36619 0)
(0.0400442 0.366834 0)
(0.0419112 0.3617 0)
(0.042889 0.351385 0)
(0.0430108 0.336489 0)
(0.0423413 0.317595 0)
(0.0409689 0.295257 0)
(0.0389969 0.269991 0)
(0.0365372 0.242268 0)
(0.0337039 0.212517 0)
(0.0306086 0.181123 0)
(0.0273575 0.148428 0)
(0.0240482 0.114741 0)
(0.0207688 0.0803398 0)
(0.0175963 0.0454789 0)
(0.0145965 0.0103956 0)
(0.0118242 -0.0246828 0)
(0.00932292 -0.0595316 0)
(0.00712546 -0.0939226 0)
(0.00525406 -0.127617 0)
(0.00372075 -0.160361 0)
(0.00252744 -0.191877 0)
(0.00166612 -0.221861 0)
(0.00111892 -0.249981 0)
(0.000858322 -0.275869 0)
(0.00084742 -0.299125 0)
(0.00104059 -0.319314 0)
(0.00138453 -0.335971 0)
(0.00181994 -0.348608 0)
(0.00228398 -0.356717 0)
(0.00271353 -0.359788 0)
(0.00304937 -0.357317 0)
(0.00324106 -0.348831 0)
(0.00325225 -0.333901 0)
(0.00306595 -0.312172 0)
(0.00268921 -0.283385 0)
(0.0021561 -0.2474 0)
(0.00152735 -0.204224 0)
(0.000885932 -0.154025 0)
(0.000344463 -0.0971464 0)
(5.75821e-05 -0.0341467 0)
(0.00021734 0.0352443 0)
(0.00141315 0.100138 0)
(0.00387321 0.158601 0)
(0.00715847 0.210058 0)
(0.0109611 0.254143 0)
(0.0150276 0.290672 0)
(0.0191139 0.319634 0)
(0.0230011 0.341177 0)
(0.026507 0.355585 0)
(0.0294896 0.363249 0)
(0.0318488 0.364645 0)
(0.0335242 0.3603 0)
(0.0344928 0.350774 0)
(0.0347632 0.336632 0)
(0.0343704 0.318432 0)
(0.0333698 0.296709 0)
(0.031831 0.271967 0)
(0.029833 0.244673 0)
(0.0274593 0.215251 0)
(0.0247944 0.18409 0)
(0.0219209 0.151537 0)
(0.0189173 0.117907 0)
(0.0158566 0.0834862 0)
(0.0128055 0.048538 0)
(0.00982413 0.0133085 0)
(0.00696558 -0.0219658 0)
(0.00427637 -0.0570517 0)
(0.0017965 -0.0917122 0)
(-0.000440418 -0.125701 0)
(-0.00240694 -0.158754 0)
(-0.00408187 -0.190587 0)
(-0.00545035 -0.220888 0)
(-0.00650421 -0.249315 0)
(-0.00724239 -0.275494 0)
(-0.00767138 -0.299014 0)
(-0.00780575 -0.319434 0)
(-0.00766838 -0.336281 0)
(-0.00729052 -0.349059 0)
(-0.00671131 -0.357257 0)
(-0.0059767 -0.360361 0)
(-0.00513772 -0.357872 0)
(-0.00424791 -0.349318 0)
(-0.00336013 -0.334282 0)
(-0.00252299 -0.312424 0)
(-0.00177713 -0.283499 0)
(-0.00115209 -0.247389 0)
(-0.00066403 -0.204119 0)
(-0.000315034 -0.153874 0)
(-9.90097e-05 -0.0970088 0)
(-1.17146e-05 -0.034084 0)
(0.000148192 0.0346332 0)
(0.000972621 0.0985061 0)
(0.00268267 0.156165 0)
(0.00498929 0.20704 0)
(0.00769108 0.250766 0)
(0.0106197 0.28715 0)
(0.0136078 0.316163 0)
(0.0164998 0.33793 0)
(0.01916 0.352705 0)
(0.0214765 0.360848 0)
(0.0233629 0.362799 0)
(0.0247593 0.359056 0)
(0.0256312 0.350146 0)
(0.0259669 0.336611 0)
(0.025775 0.318988 0)
(0.0250806 0.297796 0)
(0.0239214 0.273527 0)
(0.0223447 0.24664 0)
(0.020404 0.217556 0)
(0.0181562 0.186661 0)