/*--------------------------------*- C++ -*----------------------------------*\
  =========                 |
  \\      /  F ield         | OpenFOAM: The Open Source CFD Toolbox
   \\    /   O peration     | Website:  https://openfoam.org
    \\  /    A nd           | Version:  7
     \\/     M anipulation  |
\*---------------------------------------------------------------------------*/
FoamFile
{
    version     2.0;
    format      ascii;
    class       surfaceScalarField;
    location    "0.075";
    object      phi;
}
// * * * * * * * * * * * * * * * * * * * * * * * * * * * * * * * * * * * * * //

dimensions      [0 3 -1 0 0 0 0];

internalField   nonuniform List<scalar> 
4900
(
5.45461e-06
-5.45462e-06
9.95309e-06
-4.49848e-06
1.26939e-05
-2.7408e-06
1.44122e-05
-1.71833e-06
1.55285e-05
-1.11633e-06
1.62819e-05
-7.53312e-07
1.68131e-05
-5.31263e-07
1.72039e-05
-3.90752e-07
1.75013e-05
-2.97462e-07
1.77338e-05
-2.32452e-07
1.7919e-05
-1.85197e-07
1.80686e-05
-1.49631e-07
1.81907e-05
-1.22107e-07
1.8291e-05
-1.00326e-07
1.83738e-05
-8.27754e-08
1.84422e-05
-6.84166e-08
1.84987e-05
-5.65109e-08
1.85453e-05
-4.6515e-08
1.85833e-05
-3.80173e-08
1.8614e-05
-3.0697e-08
1.86383e-05
-2.42975e-08
1.86569e-05
-1.86078e-08
1.86703e-05
-1.34491e-08
1.8679e-05
-8.66549e-09
1.86831e-05
-4.11665e-09
1.86828e-05
3.3143e-10
1.8678e-05
4.80178e-09
1.86686e-05
9.4287e-09
1.86542e-05
1.43467e-08
1.86345e-05
1.97061e-08
1.86088e-05
2.56777e-08
1.85764e-05
3.24638e-08
1.8536e-05
4.03109e-08
1.84865e-05
4.9529e-08
1.8426e-05
6.05195e-08
1.83522e-05
7.3816e-08
1.8262e-05
9.01483e-08
1.81515e-05
1.10545e-07
1.8015e-05
1.36506e-07
1.78447e-05
1.70306e-07
1.76291e-05
2.15547e-07
1.73509e-05
2.78219e-07
1.69821e-05
3.68787e-07
1.64758e-05
5.0633e-07
1.57496e-05
7.2622e-07
1.46576e-05
1.092e-06
1.29452e-05
1.71242e-06
1.0162e-05
2.7832e-06
5.55723e-06
4.60473e-06
5.55723e-06
-1.19318e-07
-5.3353e-06
1.83181e-06
-6.44961e-06
4.41348e-06
-5.32247e-06
6.72991e-06
-4.03476e-06
8.61077e-06
-2.99719e-06
1.00945e-05
-2.23704e-06
1.12608e-05
-1.69751e-06
1.21836e-05
-1.3136e-06
1.29215e-05
-1.03534e-06
1.35179e-05
-8.28881e-07
1.40047e-05
-6.72033e-07
1.44053e-05
-5.50237e-07
1.47371e-05
-4.53813e-07
1.50129e-05
-3.76186e-07
1.52429e-05
-3.12779e-07
1.54348e-05
-2.60317e-07
1.55947e-05
-2.16397e-07
1.57274e-05
-1.79209e-07
1.58367e-05
-1.47356e-07
1.59258e-05
-1.19732e-07
1.59969e-05
-9.54409e-08
1.6052e-05
-7.37351e-08
1.60926e-05
-5.39762e-08
1.61195e-05
-3.56019e-08
1.61335e-05
-1.81007e-08
1.61348e-05
-9.9329e-10
1.61234e-05
1.61936e-08
1.60989e-05
3.39323e-08
1.60605e-05
5.27253e-08
1.60071e-05
7.31211e-08
1.59371e-05
9.57416e-08
1.58482e-05
1.21316e-07
1.57378e-05
1.50728e-07
1.56022e-05
1.85072e-07
1.5437e-05
2.25749e-07
1.52362e-05
2.74589e-07
1.49923e-05
3.34048e-07
1.46954e-05
4.07493e-07
1.43322e-05
4.99665e-07
1.38851e-05
6.17407e-07
1.33298e-05
7.70855e-07
1.26327e-05
9.75364e-07
1.17469e-05
1.2546e-06
1.0608e-05
1.64516e-06
9.13212e-06
2.20215e-06
7.22463e-06
2.99949e-06
4.83161e-06
4.10543e-06
2.12103e-06
5.49378e-06
1.07201e-08
6.71504e-06
5.56795e-06
-1.08241e-06
-4.25289e-06
-7.53911e-07
-6.77811e-06
5.90046e-07
-6.66643e-06
2.30297e-06
-5.74769e-06
4.01514e-06
-4.70936e-06
5.56791e-06
-3.7898e-06
6.91401e-06
-3.04362e-06
8.05698e-06
-2.45657e-06
9.01933e-06
-1.99769e-06
9.82775e-06
-1.6373e-06
1.05072e-05
-1.35151e-06
1.10792e-05
-1.12222e-06
1.15615e-05
-9.36068e-07
1.19685e-05
-7.83208e-07
1.2312e-05
-6.56341e-07
1.26017e-05
-5.49984e-07
1.28453e-05
-4.59952e-07
1.30491e-05
-3.82991e-07
1.32182e-05
-3.16523e-07
1.33569e-05
-2.58459e-07
1.34686e-05
-2.07074e-07
1.35558e-05
-1.60909e-07
1.36205e-05
-1.18696e-07
1.36642e-05
-7.93057e-08
1.36878e-05
-4.17011e-08
1.36917e-05
-4.90162e-09
1.36758e-05
3.20601e-08
1.36396e-05
7.01583e-08
1.35819e-05
1.10423e-07
1.3501e-05
1.53975e-07
1.33947e-05
2.02077e-07
1.32598e-05
2.56192e-07
1.30925e-05
3.1807e-07
1.28877e-05
3.89853e-07
1.26392e-05
4.74221e-07
1.23392e-05
5.74605e-07
1.19778e-05
6.95476e-07
1.15425e-05
8.42761e-07
1.10177e-05
1.02445e-06
1.03837e-05
1.25142e-06
9.61595e-06
1.53864e-06
8.68471e-06
1.9066e-06
7.55648e-06
2.38283e-06
6.19937e-06
3.00226e-06
4.59869e-06
3.80283e-06
2.79212e-06
4.80607e-06
9.38352e-07
5.9592e-06
-5.70495e-07
7.00263e-06
-1.03811e-06
7.18266e-06
4.52983e-06
-9.12949e-07
-3.33994e-06
-1.34112e-06
-6.34994e-06
-9.35784e-07
-7.07176e-06
2.31974e-08
-6.70667e-06
1.24206e-06
-5.92822e-06
2.52128e-06
-5.06902e-06
3.74805e-06
-4.27039e-06
4.86963e-06
-3.57815e-06
5.86812e-06
-2.99618e-06
6.74364e-06
-2.51281e-06
7.50453e-06
-2.1124e-06
8.16225e-06
-1.77994e-06
8.72875e-06
-1.50256e-06
9.21527e-06
-1.26973e-06
9.63191e-06
-1.07298e-06
9.98749e-06
-9.05564e-07
1.02896e-05
-7.62045e-07
1.05446e-05
-6.3803e-07
1.0758e-05
-5.29915e-07
1.09343e-05
-4.34697e-07
1.1077e-05
-3.4983e-07
1.11892e-05
-2.73114e-07
1.12731e-05
-2.02605e-07
1.13304e-05
-1.36544e-07
1.1362e-05
-7.3296e-08
1.13684e-05
-1.12995e-08
1.13494e-05
5.09878e-08
1.13045e-05
1.1513e-07
1.12321e-05
1.82773e-07
1.11304e-05
2.55698e-07
1.09966e-05
3.35891e-07
1.08271e-05
4.25629e-07
1.06176e-05
5.27586e-07
1.03625e-05
6.44969e-07
1.0055e-05
7.81702e-07
9.68697e-06
9.42656e-07
9.24849e-06
1.13396e-06
8.72787e-06
1.36338e-06
8.11149e-06
1.64083e-06
7.38404e-06
1.97886e-06
6.52951e-06
2.39317e-06
5.53359e-06
2.90252e-06
4.38907e-06
3.52736e-06
3.10649e-06
4.28484e-06
1.73345e-06
5.17587e-06
3.8474e-07
6.15478e-06
-7.23838e-07
7.06778e-06
-1.26539e-06
7.54418e-06
-9.15782e-07
6.83306e-06
3.61405e-06
-6.64609e-07
-2.67534e-06
-1.29659e-06
-5.71796e-06
-1.41667e-06
-6.95168e-06
-1.04e-06
-7.08333e-06
-3.21118e-07
-6.64711e-06
5.82437e-07
-5.97258e-06
1.55239e-06
-5.24034e-06
2.5128e-06
-4.53857e-06
3.42045e-06
-3.90382e-06
4.25388e-06
-3.34624e-06
5.00505e-06
-2.86357e-06
5.67356e-06
-2.44846e-06
6.26314e-06
-2.09214e-06
6.77941e-06
-1.78601e-06
7.22873e-06
-1.5223e-06
7.61742e-06
-1.29426e-06
7.95146e-06
-1.09608e-06
8.23623e-06
-9.22802e-07
8.47651e-06
-7.70194e-07
8.6764e-06
-6.34589e-07
8.83935e-06
-5.12782e-07
8.96817e-06
-4.01932e-07
9.06503e-06
-2.99473e-07
9.13153e-06
-2.03042e-07
9.16865e-06
-1.10411e-07
9.17678e-06
-1.94305e-08
9.15573e-06
7.20333e-08
9.10471e-06
1.66151e-07
9.02229e-06
2.65198e-07
8.90636e-06
3.71619e-07
8.75414e-06
4.88111e-07
8.56206e-06
6.17714e-07
8.32571e-06
7.6393e-07
8.03983e-06
9.30857e-07
7.69817e-06
1.12336e-06
7.29358e-06
1.34725e-06
6.81799e-06
1.60954e-06
6.26276e-06
1.91862e-06
5.61917e-06
2.28442e-06
4.87968e-06
2.71836e-06
4.04011e-06
3.23274e-06
3.10357e-06
3.83905e-06
2.08709e-06
4.54384e-06
1.03167e-06
5.34026e-06
1.6023e-08
6.19152e-06
-8.30563e-07
7.00136e-06
-1.32827e-06
7.56548e-06
-1.29243e-06
7.50834e-06
-6.84818e-07
6.22544e-06
2.92923e-06
-4.70546e-07
-2.20479e-06
-1.09882e-06
-5.08969e-06
-1.46619e-06
-6.58431e-06
-1.46607e-06
-7.08345e-06
-1.14426e-06
-6.96892e-06
-5.95746e-07
-6.52109e-06
8.57671e-08
-5.92186e-06
8.26399e-07
-5.2792e-06
1.57449e-06
-4.65191e-06
2.29694e-06
-4.0687e-06
2.97433e-06
-3.54095e-06
3.59657e-06
-3.0707e-06
4.15965e-06
-2.65522e-06
4.6633e-06
-2.28965e-06
5.10942e-06
-1.96842e-06
5.50109e-06
-1.68593e-06
5.84189e-06
-1.43688e-06
6.13551e-06
-1.21642e-06
6.38546e-06
-1.02015e-06
6.59497e-06
-8.44096e-07
6.76683e-06
-6.84649e-07
6.90341e-06
-5.38506e-07
7.00655e-06
-4.0261e-07
7.07759e-06
-2.74086e-07
7.11736e-06
-1.50182e-07
7.12614e-06
-2.82113e-08
7.10367e-06
9.45062e-08
7.04912e-06
2.20704e-07
6.96108e-06
3.53234e-07
6.83757e-06
4.95135e-07
6.67596e-06
6.49714e-07
6.47304e-06
8.20632e-07
6.22497e-06
1.012e-06
5.92732e-06
1.2285e-06
5.57521e-06
1.47548e-06
5.16342e-06
1.75904e-06
4.68684e-06
2.08612e-06
4.14101e-06
2.46444e-06
3.52323e-06
2.9022e-06
2.83421e-06
3.40737e-06
2.08083e-06
3.98613e-06
1.28001e-06
4.63987e-06
4.64254e-07
5.35959e-06
-3.1187e-07
6.11638e-06
-9.66175e-07
6.84583e-06
-1.38984e-06
7.42502e-06
-1.46769e-06
7.64334e-06
-1.13532e-06
7.17597e-06
-4.96335e-07
5.58646e-06
2.4329e-06
-3.39532e-07
-1.86526e-06
-9.00795e-07
-4.52842e-06
-1.36164e-06
-6.12346e-06
-1.58071e-06
-6.86439e-06
-1.53958e-06
-7.01005e-06
-1.28033e-06
-6.78034e-06
-8.64284e-07
-6.3379e-06
-3.50552e-07
-5.79293e-06
2.12582e-07
-5.21504e-06
7.89251e-07
-4.64537e-06
1.35462e-06
-4.10632e-06
1.89256e-06
-3.60865e-06
2.39338e-06
-3.15603e-06
2.85187e-06
-2.74815e-06
3.26591e-06
-2.38246e-06
3.63531e-06
-2.05532e-06
3.9611e-06
-1.76267e-06
4.24497e-06
-1.50029e-06
4.48893e-06
-1.26411e-06
4.69502e-06
-1.05018e-06
4.86514e-06
-8.54772e-07
5.00098e-06
-6.74343e-07
5.10388e-06
-5.05514e-07
5.17483e-06
-3.45035e-07
5.21439e-06
-1.89741e-07
5.22269e-06
-3.65075e-08
5.19939e-06
1.17804e-07
5.1437e-06
2.76395e-07
5.05434e-06
4.42592e-07
4.92957e-06
6.19903e-07
4.7672e-06
8.12085e-07
4.56462e-06
1.02321e-06
4.3189e-06
1.25772e-06
4.02691e-06
1.5205e-06
3.68551e-06
1.81687e-06
3.29197e-06
2.15258e-06
2.84445e-06
2.53364e-06
2.34288e-06
2.96601e-06
1.79019e-06
3.4549e-06
1.19406e-06
4.0035e-06
5.69385e-07
4.61081e-06
-5.87101e-08
5.26796e-06
-6.51548e-07
5.95243e-06
-1.15444e-06
6.61928e-06
-1.49767e-06
7.18905e-06
-1.60572e-06
7.53307e-06
-1.42232e-06
7.45994e-06
-9.58831e-07
6.71248e-06
-3.66323e-07
4.99395e-06
2.06657e-06
-2.54574e-07
-1.61068e-06
-7.39709e-07
-4.04329e-06
-1.21871e-06
-5.64447e-06
-1.55493e-06
-6.52816e-06
-1.6994e-06
-6.86558e-06
-1.65803e-06
-6.82171e-06
-1.46351e-06
-6.53242e-06
-1.15671e-06
-6.09973e-06
-7.76624e-07
-5.59513e-06
-3.55991e-07
-5.066e-06
7.9783e-08
-4.5421e-06
5.12099e-07
-4.04096e-06
9.28019e-07
-3.57195e-06
1.31901e-06
-3.13914e-06
1.67983e-06
-2.74328e-06
2.00759e-06
-2.38308e-06
2.30099e-06
-2.05607e-06
2.55984e-06
-1.75914e-06
2.78457e-06
-1.48884e-06
2.97599e-06
-1.2416e-06
3.13503e-06
-1.01381e-06
3.26258e-06
-8.01897e-07
3.35942e-06
-6.02353e-07
3.42609e-06
-4.11704e-07
3.46286e-06
-2.26511e-07
3.46968e-06
-4.33325e-08
3.44618e-06
1.41304e-07
3.39163e-06
3.30945e-07
3.30497e-06
5.29253e-07
3.18483e-06
7.40047e-07
3.02957e-06
9.67342e-07
2.8374e-06
1.21538e-06
2.60648e-06
1.48865e-06
2.33513e-06
1.79185e-06
2.02218e-06
2.12983e-06
1.66734e-06
2.50741e-06
1.27192e-06
2.92906e-06
8.39637e-07
3.39829e-06
3.77841e-07
3.91669e-06
-1.01002e-07
4.48234e-06
-5.77548e-07
5.08735e-06
-1.02381e-06
5.71422e-06
-1.40201e-06
6.33064e-06
-1.66534e-06
6.88261e-06
-1.76269e-06
7.2864e-06
-1.65061e-06
7.42098e-06
-1.31569e-06
7.12502e-06
-8.08383e-07
6.20517e-06
-2.80893e-07
4.46646e-06
1.78568e-06
-1.98971e-07
-1.41171e-06
-6.16817e-07
-3.62544e-06
-1.08129e-06
-5.17999e-06
-1.47417e-06
-6.13528e-06
-1.73606e-06
-6.6037e-06
-1.85151e-06
-6.70626e-06
-1.83181e-06
-6.55212e-06
-1.7012e-06
-6.23034e-06
-1.48771e-06
-5.80862e-06
-1.21796e-06
-5.33575e-06
-9.14781e-07
-4.84527e-06
-5.96512e-07
-4.35923e-06
-2.77146e-07
-3.89132e-06
3.30638e-08
-3.44935e-06
3.26907e-07
-3.03712e-06
5.99531e-07
-2.6557e-06
8.47852e-07
-2.30439e-06
1.07006e-06
-1.98135e-06
1.26521e-06
-1.684e-06
1.43296e-06
-1.40935e-06
1.57327e-06
-1.15412e-06
1.68631e-06
-9.14929e-07
1.77222e-06
-6.88272e-07
1.83114e-06
-4.70616e-07
1.86301e-06
-2.58388e-07
1.86765e-06
-4.79702e-08
1.84464e-06
1.64312e-07
1.79338e-06
3.82208e-07
1.71307e-06
6.09562e-07
1.60279e-06
8.50332e-07
1.46154e-06
1.10859e-06
1.28839e-06
1.38853e-06
1.08265e-06
1.69438e-06
8.44115e-07
2.03038e-06
5.73408e-07
2.40053e-06
2.7246e-07
2.80836e-06
-5.48772e-08
3.2564e-06
-4.02038e-07
3.74545e-06
-7.58796e-07
4.27345e-06
-1.11022e-06
4.83376e-06
-1.43568e-06
5.41281e-06
-1.70831e-06
5.98685e-06
-1.89553e-06
6.51786e-06
-1.96171e-06
6.94879e-06
-1.87436e-06
7.19906e-06
-1.61547e-06
7.16209e-06
-1.19858e-06
6.70814e-06
-6.89713e-07
5.6963e-06
-2.24221e-07
4.00097e-06
1.56146e-06
-1.61626e-07
-1.25009e-06
-5.24889e-07
-3.26218e-06
-9.63263e-07
-4.74162e-06
-1.37902e-06
-5.71953e-06
-1.71272e-06
-6.26999e-06
-1.93799e-06
-6.48099e-06
-2.0518e-06
-6.43831e-06
-2.06517e-06
-6.21697e-06
-1.99586e-06
-5.87793e-06
-1.86351e-06
-5.4681e-06
-1.68679e-06
-5.022e-06
-1.48198e-06
-4.56404e-06
-1.26253e-06
-4.11077e-06
-1.03905e-06
-3.67283e-06
-8.1965e-07
-3.25652e-06
-6.10327e-07
-2.86502e-06
-4.15387e-07
-2.49933e-06
-2.3783e-07
-2.1589e-06
-7.9678e-08
-1.84215e-06
5.77462e-08
-1.54677e-06
1.73601e-07
-1.26998e-06
2.6735e-07
-1.00868e-06
3.38627e-07
-7.59549e-07
3.87139e-07
-5.19128e-07
4.12593e-07
-2.83842e-07
4.14652e-07
-5.00293e-08
3.92915e-07
1.86049e-07
3.4692e-07
4.28203e-07
2.76174e-07
6.80308e-07
1.80212e-07
9.46294e-07
5.86927e-08
1.23011e-06
-8.84633e-08
1.53568e-06
-2.60878e-07
1.8668e-06
-4.57457e-07
2.22696e-06
-6.76044e-07
2.61912e-06
-9.12986e-07
3.0453e-06
-1.16261e-06
3.50602e-06
-1.4166e-06
3.99944e-06
-1.66336e-06
4.52021e-06
-1.88746e-06
5.05786e-06
-2.06936e-06
5.5947e-06
-2.18576e-06
6.10326e-06
-2.21122e-06
6.54332e-06
-2.12156e-06
6.85913e-06
-1.90006e-06
6.97755e-06
-1.54665e-06
6.80869e-06
-1.08977e-06
6.25125e-06
-5.9796e-07
5.20449e-06
-1.85428e-07
3.58843e-06
1.37603e-06
-1.35813e-07
-1.11427e-06
-4.56284e-07
-2.94171e-06
-8.6667e-07
-4.33123e-06
-1.28745e-06
-5.29874e-06
-1.66377e-06
-5.89367e-06
-1.96474e-06
-6.18002e-06
-2.17858e-06
-6.22446e-06
-2.30669e-06
-6.08886e-06
-2.3583e-06
-5.82633e-06
-2.34638e-06
-5.48002e-06
-2.28495e-06
-5.08343e-06
-2.18734e-06
-4.66164e-06
-2.0654e-06
-4.23271e-06
-1.92913e-06
-3.80911e-06
-1.78664e-06
-3.399e-06
-1.64438e-06
-3.00729e-06
-1.50729e-06
-2.63642e-06
-1.37912e-06
-2.28707e-06
-1.26265e-06
-1.95862e-06
-1.15993e-06
-1.64949e-06
-1.07243e-06
-1.35748e-06
-1.00124e-06
-1.07987e-06
-9.47171e-07
-8.13619e-07
-9.10841e-07
-5.55459e-07
-8.92756e-07
-3.01928e-07
-8.93343e-07
-4.94419e-08
-9.1297e-07
2.05676e-07
-9.51933e-07
4.67166e-07
-1.01042e-06
7.38797e-07
-1.08845e-06
1.02432e-06
-1.18576e-06
1.32742e-06
-1.30167e-06
1.65159e-06
-1.43489e-06
2.00002e-06
-1.58328e-06
2.37535e-06
-1.74353e-06
2.77937e-06
-1.91083e-06
3.2126e-06
-2.07844e-06
3.67363e-06
-2.23731e-06
4.15832e-06
-2.37577e-06
4.65867e-06
-2.47933e-06
5.16142e-06
-2.53102e-06
5.6464e-06
-2.51232e-06
6.08456e-06
-2.40522e-06
6.43621e-06
-2.19571e-06
6.64963e-06
-1.87912e-06
6.66096e-06
-1.46701e-06
6.39658e-06
-9.94658e-07
5.7789e-06
-5.26829e-07
4.73666e-06
-1.57868e-07
3.21947e-06
1.21816e-06
-1.17496e-07
-9.96777e-07
-4.04855e-07
-2.65435e-06
-7.89416e-07
-3.94667e-06
-1.20649e-06
-4.88167e-06
-1.60725e-06
-5.49292e-06
-1.96e-06
-5.82728e-06
-2.24806e-06
-5.93639e-06
-2.46627e-06
-5.87065e-06
-2.61725e-06
-5.67535e-06
-2.70826e-06
-5.38901e-06
-2.74881e-06
-5.04289e-06
-2.749e-06
-4.66145e-06
-2.71853e-06
-4.26318e-06
-2.66614e-06
-3.8615e-06
-2.59935e-06
-3.46579e-06
-2.52445e-06
-3.08219e-06
-2.44655e-06
-2.71431e-06
-2.36976e-06
-2.36387e-06
-2.29727e-06
-2.0311e-06
-2.23159e-06
-1.71517e-06
-2.17465e-06
-1.41442e-06
-2.12792e-06
-1.12659e-06
-2.09254e-06
-8.49004e-07
-2.06936e-06
-5.78635e-07
-2.05904e-06
-3.12244e-07
-2.06206e-06
-4.6423e-08
-2.07872e-06
2.22336e-07
-2.10915e-06
4.97592e-07
-2.15324e-06
7.82891e-07
-2.21062e-06
1.0817e-06
-2.2805e-06
1.3973e-06
-2.36158e-06
1.73268e-06
-2.45188e-06
2.09032e-06
-2.54849e-06
2.47196e-06
-2.64738e-06
2.87826e-06
-2.74311e-06
3.30833e-06
-2.82859e-06
3.75911e-06
-2.89488e-06
4.22461e-06
-2.93113e-06
4.69492e-06
-2.92479e-06
5.15508e-06
-2.86221e-06
5.58381e-06
-2.7299e-06
5.95225e-06
-2.51667e-06
6.22299e-06
-2.21681e-06
6.34977e-06
-1.83424e-06
6.27839e-06
-1.38736e-06
5.94969e-06
-9.13456e-07
5.30499e-06
-4.71018e-07
4.29423e-06
-1.37568e-07
2.88602e-06
1.08059e-06
-1.04212e-07
-8.92565e-07
-3.66055e-07
-2.39251e-06
-7.28334e-07
-3.58439e-06
-1.13797e-06
-4.47203e-06
-1.55214e-06
-5.07874e-06
-1.94023e-06
-5.43919e-06
-2.28319e-06
-5.59344e-06
-2.5716e-06
-5.58223e-06
-2.80324e-06
-5.44371e-06
-2.98073e-06
-5.21152e-06
-3.1096e-06
-4.91403e-06
-3.1968e-06
-4.57425e-06
-3.24971e-06
-4.21026e-06
-3.27548e-06
-3.83573e-06
-3.28062e-06
-3.46065e-06
-3.27087e-06
-3.09194e-06
-3.25112e-06
-2.73406e-06
-3.22548e-06
-2.38951e-06
-3.1973e-06
-2.05929e-06
-3.16929e-06
-1.74318e-06
-3.14364e-06
-1.44007e-06
-3.12206e-06
-1.14817e-06
-3.10589e-06
-8.6518e-07
-3.09613e-06
-5.88395e-07
-3.09352e-06
-3.14854e-07
-3.09854e-06
-4.14055e-08
-3.11141e-06
2.35207e-07
-3.13209e-06
5.18274e-07
-3.16023e-06
8.11033e-07
-3.19511e-06
1.11658e-06
-3.23554e-06
1.43774e-06
-3.27977e-06
1.77691e-06
-3.32533e-06
2.13587e-06
-3.36886e-06
2.51549e-06
-3.406e-06
2.9154e-06
-3.43116e-06
3.33349e-06
-3.43747e-06
3.76542e-06
-3.41672e-06
4.20386e-06
-3.35952e-06
4.63772e-06
-3.25573e-06
5.05129e-06
-3.09524e-06
5.42332e-06
-2.86933e-06
5.72635e-06
-2.57264e-06
5.9263e-06
-2.20575e-06
5.98288e-06
-1.77838e-06
5.85102e-06
-1.31248e-06
5.48379e-06
-8.44652e-07
4.83717e-06
-4.2657e-07
3.87614e-06
-1.22135e-07
2.58159e-06
9.5846e-07
-9.44143e-08
-7.98151e-07
-3.366e-07
-2.15032e-06
-6.80331e-07
-3.24066e-06
-1.08144e-06
-4.07092e-06
-1.50251e-06
-4.65768e-06
-1.91478e-06
-5.02691e-06
-2.29839e-06
-5.20983e-06
-2.64133e-06
-5.23929e-06
-2.93795e-06
-5.14709e-06
-3.18727e-06
-4.9622e-06
-3.39147e-06
-4.70982e-06
-3.55468e-06
-4.41104e-06
-3.682e-06
-4.08294e-06
-3.77885e-06
-3.73889e-06
-3.85053e-06
-3.38897e-06
-3.90197e-06
-3.0405e-06
-3.93759e-06
-2.69844e-06
-3.96122e-06
-2.36589e-06
-3.97612e-06
-2.04438e-06
-3.98505e-06
-1.73425e-06
-3.99024e-06
-1.43488e-06
-3.99351e-06
-1.14491e-06
-3.99627e-06
-8.62411e-07
-3.99962e-06
-5.85051e-07
-4.00429e-06
-3.10183e-07
-4.01073e-06
-3.49635e-08
-4.01908e-06
2.43554e-07
-4.02913e-06
5.28329e-07
-4.04034e-06
8.22237e-07
-4.05171e-06
1.12795e-06
-4.06178e-06
1.44781e-06
-4.0685e-06
1.78363e-06
-4.06913e-06
2.1365e-06
-4.06017e-06
2.50653e-06
-4.03723e-06
2.89246e-06
-3.99499e-06
3.29125e-06
-3.92719e-06
3.69763e-06
-3.82678e-06
4.10345e-06
-3.68617e-06
4.49711e-06
-3.4978e-06
4.86291e-06
-3.25498e-06
5.1805e-06
-2.9532e-06
5.42456e-06
-2.59176e-06
5.56486e-06
-2.17587e-06
5.567e-06
-1.71889e-06
5.39403e-06
-1.2442e-06
5.00911e-06
-7.86385e-07
4.37936e-06
-3.90653e-07
3.48041e-06
-1.1009e-07
2.30102e-06
8.4837e-07
-8.70965e-08
-7.11054e-07
-3.14125e-07
-1.92329e-06
-6.42741e-07
-2.91205e-06
-1.03558e-06
-3.67808e-06
-1.45978e-06
-4.23348e-06
-1.88872e-06
-4.59797e-06
-2.30257e-06
-4.79598e-06
-2.68787e-06
-4.85399e-06
-3.03661e-06
-4.79835e-06
-3.34511e-06
-4.6537e-06
-3.61286e-06
-4.44207e-06
-3.84152e-06
-4.18238e-06
-4.03412e-06
-3.89035e-06
-4.19438e-06
-3.57863e-06
-4.32632e-06
-3.25703e-06
-4.43392e-06
-2.93289e-06
-4.52093e-06
-2.61143e-06
-4.59076e-06
-2.29606e-06
-4.6464e-06
-1.98873e-06
-4.69046e-06
-1.69019e-06
-4.72511e-06
-1.40023e-06
-4.75215e-06
-1.11787e-06
-4.77298e-06
-8.41578e-07
-4.78868e-06
-5.69359e-07
-4.79994e-06
-2.98913e-07
-4.80717e-06
-2.77361e-08
-4.81039e-06
2.46774e-07
-4.80928e-06
5.27215e-07
-4.80311e-06
8.16068e-07
-4.79073e-06
1.11557e-06
-4.77049e-06
1.42757e-06
-4.74021e-06
1.75335e-06
-4.6971e-06
2.09339e-06
-4.6377e-06
2.44713e-06
-4.55789e-06
2.81265e-06
-4.45289e-06
3.18626e-06
-4.31737e-06
3.5621e-06
-4.14563e-06
3.93171e-06
-3.93202e-06
4.28351e-06
-3.67151e-06
4.6024e-06
-3.3605e-06
4.86949e-06
-2.99799e-06
5.06205e-06
-2.58692e-06
5.15379e-06
-2.13576e-06
5.11584e-06
-1.65993e-06
4.9182e-06
-1.183e-06
4.53217e-06
-7.36945e-07
3.9333e-06
-3.61261e-07
3.10473e-06
-1.00494e-07
2.04026e-06
7.47876e-07
-8.15823e-08
-6.29472e-07
-2.96913e-07
-1.70796e-06
-6.13383e-07
-2.59558e-06
-9.98805e-07
-3.29266e-06
-1.42406e-06
-3.80822e-06
-1.86461e-06
-4.15742e-06
-2.3011e-06
-4.35948e-06
-2.71936e-06
-4.43574e-06
-3.10981e-06
-4.40789e-06
-3.46679e-06
-4.29672e-06
-3.78767e-06
-4.1212e-06
-4.07204e-06
-3.898e-06
-4.3211e-06
-3.64129e-06
-4.53703e-06
-3.3627e-06
-4.72256e-06
-3.0715e-06
-4.88068e-06
-2.77477e-06
-5.01439e-06
-2.47772e-06
-5.12656e-06
-2.1839e-06
-5.2198e-06
-1.89549e-06
-5.29646e-06
-1.61354e-06
-5.35852e-06
-1.33816e-06
-5.40768e-06
-1.06871e-06
-5.44526e-06
-8.04004e-07
-5.47224e-06
-5.42379e-07
-5.48927e-06
-2.81882e-07
-5.49664e-06
-2.03581e-08
-5.49431e-06
2.44438e-07
-5.48182e-06
5.1473e-07
-5.45836e-06
7.926e-07
-5.42265e-06
1.07986e-06
-5.37299e-06
1.37791e-06
-5.30719e-06
1.68755e-06
-5.22255e-06
2.00875e-06
-5.11587e-06
2.34045e-06
-4.98349e-06
2.68026e-06
-4.82133e-06
3.0241e-06
-4.62515e-06
3.36592e-06
-4.39072e-06
3.69728e-06
-4.11428e-06
4.00707e-06
-3.79312e-06
4.28124e-06
-3.42633e-06
4.50271e-06
-3.01577e-06
4.65149e-06
-2.56712e-06
4.70514e-06
-2.09097e-06
4.6397e-06
-1.60386e-06
4.43109e-06
-1.12874e-06
4.05705e-06
-6.94918e-07
3.49948e-06
-3.36979e-07
2.74679e-06
-9.27307e-08
1.79601e-06
6.55146e-07
-7.74034e-08
-5.52068e-07
-2.83708e-07
-1.50166e-06
-5.90519e-07
-2.28876e-06
-9.69592e-07
-2.91359e-06
-1.39484e-06
-3.38298e-06
-1.84357e-06
-3.70869e-06
-2.29715e-06
-3.90591e-06
-2.7411e-06
-3.99179e-06
-3.16488e-06
-3.98411e-06
-3.56137e-06
-3.90023e-06
-3.92629e-06
-3.75628e-06
-4.2576e-06
-3.5667e-06
-4.5549e-06
-3.34399e-06
-4.81897e-06
-3.09862e-06
-5.05139e-06
-2.83908e-06
-5.25416e-06
-2.572e-06
-5.4295e-06
-2.30237e-06
-5.57969e-06
-2.03371e-06
-5.70689e-06
-1.76829e-06
-5.8131e-06
-1.50733e-06
-5.90009e-06
-1.25117e-06
-5.96933e-06
-9.99467e-07
-6.02203e-06
-7.51305e-07
-6.05905e-06
-5.05358e-07
-6.08094e-06
-2.59995e-07
-6.0879e-06
-1.34024e-08
-6.07977e-06
2.3631e-07
-6.05604e-06
4.91e-07
-6.01581e-06
7.52371e-07
-5.95779e-06
1.02184e-06
-5.88029e-06
1.30041e-06
-5.78121e-06
1.58847e-06
-5.65807e-06
1.88561e-06
-5.50805e-06
2.19044e-06
-5.32806e-06
2.50027e-06
-5.11488e-06
2.81092e-06
-4.86535e-06
3.11639e-06
-4.57671e-06
3.40864e-06
-4.24699e-06
3.67734e-06
-3.87552e-06
3.90977e-06
-3.46364e-06
4.09084e-06
-3.01546e-06
4.20331e-06
-2.53864e-06
4.22831e-06
-2.04518e-06
4.14624e-06
-1.55199e-06
3.9379e-06
-1.08107e-06
3.58614e-06
-6.59187e-07
3.07759e-06
-3.16799e-07
2.4044e-06
-8.6387e-08
1.56559e-06
5.68759e-07
-7.42279e-08
-4.77841e-07
-2.73577e-07
-1.30231e-06
-5.72779e-07
-1.98956e-06
-9.4659e-07
-2.53977e-06
-1.37133e-06
-2.95823e-06
-1.82593e-06
-3.2541e-06
-2.29247e-06
-3.43936e-06
-2.75649e-06
-3.52777e-06
-3.20683e-06
-3.53378e-06
-3.63534e-06
-3.47172e-06
-4.03649e-06
-3.35512e-06
-4.40692e-06
-3.19627e-06
-4.74491e-06
-3.006e-06
-5.05006e-06
-2.79348e-06
-5.32285e-06
-2.56629e-06
-5.5644e-06
-2.33046e-06
-5.77616e-06
-2.0906e-06
-5.95982e-06
-1.85006e-06
-6.11706e-06
-1.61105e-06
-6.24951e-06
-1.37488e-06
-6.35864e-06
-1.14204e-06
-6.44572e-06
-9.1239e-07
-6.51175e-06
-6.85268e-07
-6.55748e-06
-4.59629e-07
-6.58333e-06
-2.3415e-07
-6.58939e-06
-7.33709e-09
-6.57545e-06
2.22363e-07
-6.54091e-06
4.56465e-07
-6.48486e-06
6.96323e-07
-6.40603e-06
9.43012e-07
-6.30281e-06
1.19719e-06
-6.17327e-06
1.45893e-06
-6.01524e-06
1.72758e-06
-5.82634e-06
2.00154e-06
-5.60412e-06
2.27805e-06
-5.34622e-06
2.55302e-06
-5.0506e-06
2.82077e-06
-4.71585e-06
3.07389e-06
-4.34158e-06
3.30307e-06
-3.9289e-06
3.49709e-06
-3.48098e-06
3.64291e-06
-3.00364e-06
3.72597e-06
-2.50598e-06
3.73065e-06
-2.00083e-06
3.64108e-06
-1.50507e-06
3.44214e-06
-1.03961e-06
3.12067e-06
-6.28895e-07
2.66688e-06
-3e-07
2.0755e-06
-8.11777e-08
1.34677e-06
4.87581e-07
-7.18163e-08
-4.06024e-07
-2.65828e-07
-1.1083e-06
-5.59091e-07
-1.6963e-06
-9.28648e-07
-2.17022e-06
-1.35272e-06
-2.53416e-06
-1.81157e-06
-2.79525e-06
-2.28801e-06
-2.96292e-06
-2.76768e-06
-3.0481e-06
-3.23908e-06
-3.06239e-06
-3.69335e-06
-3.01745e-06
-4.12402e-06
-2.92444e-06
-4.52667e-06
-2.79363e-06
-4.89853e-06
-2.63414e-06
-5.23816e-06
-2.45384e-06
-5.54514e-06
-2.25931e-06
-5.81975e-06
-2.05585e-06
-6.06278e-06
-1.84757e-06
-6.27531e-06
-1.63753e-06
-6.45856e-06
-1.4278e-06
-6.61379e-06
-1.21965e-06
-6.74216e-06
-1.01367e-06
-6.8447e-06
-8.09852e-07
-6.92222e-06
-6.07741e-07
-6.97532e-06
-4.06535e-07
-7.00428e-06
-2.05187e-07
-7.00912e-06
-2.4967e-09
-6.98954e-06
2.0278e-07
-6.94492e-06
4.11847e-07
-6.87434e-06
6.25748e-07
-6.7766e-06
8.45265e-07
-6.6502e-06
1.07079e-06
-6.49346e-06
1.30219e-06
-6.30452e-06
1.53865e-06
-6.08151e-06
1.77852e-06
-5.82261e-06
2.01915e-06
-5.5263e-06
2.25671e-06
-5.19158e-06
2.48605e-06
-4.81826e-06
2.70056e-06
-4.40731e-06
2.89212e-06
-3.96132e-06
3.0511e-06
-3.48493e-06
3.16652e-06
-2.98527e-06
3.22631e-06
-2.4724e-06
3.21779e-06
-1.95961e-06
3.1283e-06
-1.46354e-06
2.94607e-06
-1.00398e-06
2.66111e-06
-6.03397e-07
2.2663e-06
-2.86064e-07
1.75817e-06
-7.69039e-08
1.13761e-06
4.10677e-07
-6.9994e-08
-3.3603e-07
-2.5994e-07
-9.1835e-07
-5.48625e-07
-1.40762e-06
-9.14819e-07
-1.80402e-06
-1.33823e-06
-2.11075e-06
-1.8002e-06
-2.33328e-06
-2.28417e-06
-2.47895e-06
-2.776e-06
-2.55627e-06
-3.26396e-06
-2.57443e-06
-3.73872e-06
-2.54269e-06
-4.19311e-06
-2.47005e-06
-4.6219e-06
-2.36484e-06
-5.02146e-06
-2.23457e-06
-5.38953e-06
-2.08577e-06
-5.72488e-06
-1.92396e-06
-6.02711e-06
-1.75362e-06
-6.29638e-06
-1.5783e-06
-6.53324e-06
-1.40066e-06
-6.73849e-06
-1.22255e-06
-6.91302e-06
-1.04513e-06
-7.05769e-06
-8.69002e-07
-7.17329e-06
-6.94247e-07
-7.26046e-06
-5.20571e-07
-7.31962e-06
-3.47375e-07
-7.35096e-06
-1.73853e-07
-7.35438e-06
9.31238e-10
-7.32955e-06
1.77946e-07
-7.27582e-06
3.58117e-07
-7.1923e-06
5.42229e-07
-7.07786e-06
7.30824e-07
-6.93117e-06
9.241e-07
-6.75077e-06
1.12179e-06
-6.53518e-06
1.32305e-06
-6.28297e-06
1.52631e-06
-5.99296e-06
1.72914e-06
-5.66439e-06
1.92815e-06
-5.29719e-06
2.11885e-06
-4.89221e-06
2.29558e-06
-4.4516e-06
2.45151e-06
-3.97913e-06
2.57863e-06
-3.48057e-06
2.66796e-06
-2.96404e-06
2.70977e-06
-2.44024e-06
2.69399e-06
-1.92269e-06
2.61075e-06
-1.42765e-06
2.45102e-06
-9.73897e-07
2.20736e-06
-5.82209e-07
1.87461e-06
-2.74619e-07
1.45058e-06
-7.34254e-08
9.36419e-07
3.37252e-07
-6.86331e-08
-2.67397e-07
-2.55525e-07
-7.31458e-07
-5.4074e-07
-1.1224e-06
-9.04342e-07
-1.44042e-06
-1.32717e-06
-1.68792e-06
-1.79143e-06
-1.86902e-06
-2.28111e-06
-1.98927e-06
-2.78225e-06
-2.05514e-06
-3.28304e-06
-2.07364e-06
-3.77381e-06
-2.05192e-06
-4.24689e-06
-1.99697e-06
-4.69642e-06
-1.91531e-06
-5.11813e-06
-1.81287e-06
-5.50906e-06
-1.69484e-06
-5.86737e-06
-1.56565e-06
-6.19204e-06
-1.42895e-06
-6.48273e-06
-1.28762e-06
-6.73953e-06
-1.14386e-06
-6.96284e-06
-9.99232e-07
-7.15323e-06
-8.54746e-07
-7.3113e-06
-7.10933e-07
-7.43762e-06
-5.67929e-07
-7.53264e-06
-4.25549e-07
-7.59665e-06
-2.83367e-07
-7.62972e-06
-1.40782e-07
-7.63169e-06
2.90766e-09
-7.60218e-06
1.48429e-07
-7.54053e-06
2.96468e-07
-7.44589e-06
4.47589e-07
-7.31722e-06
6.02152e-07
-7.15334e-06
7.60228e-07
-6.95305e-06
9.21502e-07
-6.71518e-06
1.08518e-06
-6.43874e-06
1.24987e-06
-6.1231e-06
1.41351e-06
-5.7682e-06
1.57324e-06
-5.37472e-06
1.72537e-06
-4.94441e-06
1.86528e-06
-4.48036e-06
1.98746e-06
-3.98728e-06
2.08555e-06
-3.47181e-06
2.15249e-06
-2.94275e-06
2.18071e-06
-2.41126e-06
2.16251e-06
-1.89091e-06
2.0904e-06
-1.39757e-06
1.95768e-06
-9.49121e-07
1.75891e-06
-5.64979e-07
1.49047e-06
-2.65397e-07
1.151e-06
-7.06425e-08
7.41664e-07
2.66609e-07
-6.76401e-08
-1.99757e-07
-2.52294e-07
-5.46805e-07
-5.3495e-07
-8.39745e-07
-8.9662e-07
-1.07875e-06
-1.31899e-06
-1.26555e-06
-1.78491e-06
-1.4031e-06
-2.27881e-06
-1.49537e-06
-2.7869e-06
-1.54704e-06
-3.29735e-06
-1.56318e-06
-3.80027e-06
-1.54901e-06
-4.28761e-06
-1.50962e-06
-4.75308e-06
-1.44985e-06
-5.19188e-06
-1.37406e-06
-5.60056e-06
-1.28616e-06
-5.97675e-06
-1.18946e-06
-6.31898e-06
-1.08671e-06
-6.62648e-06
-9.80119e-07
-6.89897e-06
-8.7137e-07
-7.13653e-06
-7.61678e-07
-7.33943e-06
-6.5184e-07
-7.50807e-06
-5.42295e-07
-7.64282e-06
-4.33179e-07
-7.74398e-06
-3.24389e-07
-7.81171e-06
-2.15634e-07
-7.846e-06
-1.06492e-07
-7.84663e-06
3.53467e-09
-7.81316e-06
1.14961e-07
-7.74496e-06
2.28268e-07
-7.64121e-06
3.4384e-07
-7.50096e-06
4.61902e-07
-7.32319e-06
5.82454e-07
-7.10689e-06
7.05198e-07
-6.85118e-06
8.29467e-07
-6.55546e-06
9.5415e-07
-6.21957e-06
1.07762e-06
-5.84398e-06
1.19766e-06
-5.43003e-06
1.31142e-06
-4.98018e-06
1.41542e-06
-4.49823e-06
1.50551e-06
-3.98961e-06
1.57693e-06
-3.4616e-06
1.62448e-06
-2.9235e-06
1.64262e-06
-2.38674e-06
1.62575e-06
-1.86487e-06
1.56853e-06
-1.3734e-06
1.46621e-06
-9.29479e-07
1.31499e-06
-5.51451e-07
1.11244e-06
-2.58208e-07
8.57757e-07
-6.84851e-08
5.51941e-07
1.98124e-07
-6.6948e-08
-1.32809e-07
-2.50037e-07
-3.63716e-07
-5.30897e-07
-5.58885e-07
-8.91202e-07
-7.18446e-07
-1.31323e-06
-8.43515e-07
-1.78032e-06
-9.36012e-07
-2.2772e-06
-9.98497e-07
-2.79024e-06
-1.034e-06
-3.30761e-06
-1.04582e-06
-3.81925e-06
-1.03736e-06
-4.3169e-06
-1.01197e-06
-4.79393e-06
-9.72818e-07
-5.24519e-06
-9.22804e-07
-5.66685e-06
-8.64505e-07
-6.05617e-06
-8.00137e-07
-6.41134e-06
-7.31545e-07
-6.73124e-06
-6.60213e-07
-7.01533e-06
-5.87281e-07
-7.26343e-06
-5.13579e-07
-7.47561e-06
-4.39658e-07
-7.65208e-06
-3.65829e-07
-7.79306e-06
-2.92201e-07
-7.89873e-06
-2.1872e-07
-7.96915e-06
-1.45206e-07
-8.00425e-06
-7.13939e-08
-8.00375e-06
3.03483e-09
-7.9672e-06
7.84089e-08
-7.89396e-06
1.55032e-07
-7.78326e-06
2.33141e-07
-7.63422e-06
3.12863e-07
-7.44594e-06
3.94173e-07
-7.21759e-06
4.76842e-07
-6.94851e-06
5.60393e-07
-6.63841e-06
6.4405e-07
-6.28748e-06
7.26689e-07
-5.89663e-06
8.06802e-07
-5.46767e-06
8.82467e-07
-5.00358e-06
9.51331e-07
-4.5087e-06
1.01063e-06
-3.98898e-06
1.05721e-06
-3.45214e-06
1.08764e-06
-2.90782e-06
1.09829e-06
-2.36761e-06
1.08554e-06
-1.845e-06
1.04593e-06
-1.35521e-06
9.76415e-07
-9.14845e-07
8.7462e-07
-5.41443e-07
7.39039e-07
-2.52918e-07
5.69232e-07
-6.69042e-08
3.65927e-07
1.3122e-07
-6.65106e-08
-6.62987e-08
-2.48609e-07
-1.81618e-07
-5.28328e-07
-2.79166e-07
-8.87763e-07
-3.59011e-07
-1.30957e-06
-4.21704e-07
-1.7774e-06
-4.68185e-07
-2.27618e-06
-4.99713e-07
-2.79241e-06
-5.17777e-07
-3.31423e-06
-5.24002e-07
-3.83152e-06
-5.20068e-07
-4.33586e-06
-5.07631e-07
-4.82042e-06
-4.88264e-07
-5.27981e-06
-4.63409e-07
-5.70996e-06
-4.34353e-07
-6.1079e-06
-4.02201e-07
-6.47157e-06
-3.67879e-07
-6.79964e-06
-3.32134e-07
-7.09138e-06
-2.9554e-07
-7.34644e-06
-2.58519e-07
-7.56475e-06
-2.21351e-07
-7.74638e-06
-1.84198e-07
-7.89147e-06
-1.47119e-07
-8.00009e-06
-1.10092e-07
-8.07227e-06
-7.30324e-08
-8.10785e-06
-3.58105e-08
-8.10654e-06
1.72752e-09
-8.06788e-06
3.97417e-08
-7.99122e-06
7.83786e-08
-7.87583e-06
1.17751e-07
-7.72088e-06
1.57915e-07
-7.52556e-06
1.98851e-07
-7.28916e-06
2.40435e-07
-7.01118e-06
2.82419e-07
-6.69154e-06
3.24404e-07
-6.33067e-06