/*--------------------------------*- C++ -*----------------------------------*\
  =========                 |
  \\      /  F ield         | OpenFOAM: The Open Source CFD Toolbox
   \\    /   O peration     | Website:  https://openfoam.org
    \\  /    A nd           | Version:  7
     \\/     M anipulation  |
\*---------------------------------------------------------------------------*/
FoamFile
{
    version     2.0;
    format      ascii;
    class       surfaceScalarField;
    location    "0.0064";
    object      phi;
}
// * * * * * * * * * * * * * * * * * * * * * * * * * * * * * * * * * * * * * //

dimensions      [0 3 -1 0 0 0 0];

internalField   nonuniform List<scalar> 
4900
(
6.09187e-10
-6.09412e-10
2.06034e-10
4.03159e-10
-1.59235e-09
1.79839e-09
-4.67821e-09
3.08586e-09
-8.78553e-09
4.10732e-09
-1.36318e-08
4.84629e-09
-1.89644e-08
5.33257e-09
-2.45737e-08
5.60932e-09
-3.0293e-08
5.71935e-09
-3.59931e-08
5.70007e-09
-4.15751e-08
5.58208e-09
-4.69644e-08
5.38931e-09
-5.21042e-08
5.13978e-09
-5.69509e-08
4.84667e-09
-6.14702e-08
4.51937e-09
-6.56348e-08
4.16455e-09
-6.94218e-08
3.78697e-09
-7.28119e-08
3.39018e-09
-7.57889e-08
2.97693e-09
-7.83385e-08
2.54959e-09
-8.04487e-08
2.11026e-09
-8.21097e-08
1.66096e-09
-8.33134e-08
1.20367e-09
-8.40538e-08
7.40371e-10
-8.43268e-08
2.73057e-10
-8.41306e-08
-1.96244e-10
-8.34651e-08
-6.65501e-10
-8.23324e-08
-1.13265e-09
-8.07368e-08
-1.59559e-09
-7.86846e-08
-2.0522e-09
-7.61843e-08
-2.50035e-09
-7.32465e-08
-2.93778e-09
-6.98844e-08
-3.36211e-09
-6.61137e-08
-3.77069e-09
-6.19533e-08
-4.16039e-09
-5.74261e-08
-4.52728e-09
-5.25599e-08
-4.86615e-09
-4.739e-08
-5.16988e-09
-4.19614e-08
-5.4286e-09
-3.63327e-08
-5.6287e-09
-3.0581e-08
-5.75172e-09
-2.48076e-08
-5.77342e-09
-1.91446e-08
-5.663e-09
-1.37615e-08
-5.38306e-09
-8.87053e-09
-4.89099e-09
-4.72651e-09
-4.14401e-09
-1.61359e-09
-3.1129e-09
2.0127e-10
-1.81484e-09
6.11664e-10
-4.10388e-10
6.11696e-10
-3.94993e-10
-2.14414e-10
-3.23917e-09
3.24734e-09
-9.04801e-09
7.60725e-09
-1.76002e-08
1.16381e-08
-2.84346e-08
1.49417e-08
-4.10045e-08
1.74162e-08
-5.47741e-08
1.91022e-08
-6.92664e-08
2.01016e-08
-8.40798e-08
2.05328e-08
-9.88884e-08
2.05087e-08
-1.13434e-07
2.01276e-08
-1.27514e-07
1.94695e-08
-1.40971e-07
1.85972e-08
-1.53683e-07
1.75581e-08
-1.65551e-07
1.63873e-08
-1.76497e-07
1.51103e-08
-1.86456e-07
1.37459e-08
-1.95374e-07
1.23083e-08
-2.03205e-07
1.08086e-08
-2.09912e-07
9.25624e-09
-2.15461e-07
7.65948e-09
-2.19826e-07
6.02606e-09
-2.22986e-07
4.3635e-09
-2.24925e-07
2.67917e-09
-2.25633e-07
9.80456e-10
-2.25104e-07
-7.25219e-10
-2.23339e-07
-2.43035e-09
-2.20344e-07
-4.12739e-09
-2.16131e-07
-5.80864e-09
-2.10717e-07
-7.46626e-09
-2.04125e-07
-9.09215e-09
-1.96385e-07
-1.06778e-08
-1.87533e-07
-1.22141e-08
-1.77613e-07
-1.36906e-08
-1.66678e-07
-1.5095e-08
-1.54794e-07
-1.64117e-08
-1.4204e-07
-1.76206e-08
-1.28515e-07
-1.86946e-08
-1.14346e-07
-1.95971e-08
-9.96957e-08
-2.02793e-08
-8.47703e-08
-2.06772e-08
-6.98342e-08
-2.07095e-08
-5.52196e-08
-2.02776e-08
-4.13341e-08
-1.92686e-08
-2.86604e-08
-1.75647e-08
-1.7739e-08
-1.50654e-08
-9.11989e-09
-1.1732e-08
-3.26585e-09
-7.66887e-09
-3.98879e-10
-3.27731e-09
2.12806e-10
-1.77427e-09
1.55987e-09
-7.5787e-09
9.05176e-09
-1.74286e-08
1.74572e-08
-3.09535e-08
2.5163e-08
-4.75457e-08
3.15339e-08
-6.65032e-08
3.63738e-08
-8.71253e-08
3.97243e-08
-1.0877e-07
4.17462e-08
-1.30881e-07
4.2644e-08
-1.52995e-07
4.26229e-08
-1.74736e-07
4.18684e-08
-1.95803e-07
4.05363e-08
-2.15957e-07
3.87516e-08
-2.3501e-07
3.66109e-08
-2.5281e-07
3.41872e-08
-2.69234e-07
3.15348e-08
-2.84183e-07
2.86941e-08
-2.97571e-07
2.56963e-08
-3.09328e-07
2.2566e-08
-3.19396e-07
1.93237e-08
-3.27724e-07
1.59876e-08
-3.34272e-07
1.25744e-08
-3.39009e-07
9.10019e-09
-3.4191e-07
5.58062e-09
-3.42961e-07
2.03131e-09
-3.42154e-07
-1.53215e-09
-3.3949e-07
-5.09402e-09
-3.34979e-07
-8.63838e-09
-3.28639e-07
-1.2149e-08
-3.20496e-07
-1.56094e-08
-3.10586e-07
-1.90024e-08
-2.98954e-07
-2.23096e-08
-2.85657e-07
-2.55113e-08
-2.70763e-07
-2.85848e-08
-2.54354e-07
-3.15032e-08
-2.36533e-07
-3.4233e-08
-2.17423e-07
-3.67307e-08
-1.97178e-07
-3.89393e-08
-1.75992e-07
-4.07828e-08
-1.5411e-07
-4.21618e-08
-1.31838e-07
-4.29489e-08
-1.09562e-07
-4.29862e-08
-8.77516e-08
-4.20876e-08
-6.69723e-08
-4.00478e-08
-4.78733e-08
-3.66638e-08
-3.11613e-08
-3.17773e-08
-1.75429e-08
-2.53504e-08
-7.62766e-09
-1.75841e-08
-1.78621e-09
-9.11876e-09
-1.57343e-09
-3.06224e-09
4.62212e-09
-1.16578e-08
1.76474e-08
-2.52686e-08
3.10679e-08
-4.3246e-08
4.31404e-08
-6.48139e-08
5.31018e-08
-8.91423e-08
6.07023e-08
-1.15418e-07
6.59995e-08
-1.42891e-07
6.92192e-08
-1.70904e-07
7.06578e-08
-1.98903e-07
7.06214e-08
-2.26427e-07
6.93926e-08
-2.53105e-07
6.72138e-08
-2.78636e-07
6.42831e-08
-3.02781e-07
6.07561e-08
-3.25346e-07
5.67519e-08
-3.46172e-07
5.23609e-08
-3.65129e-07
4.76513e-08
-3.82109e-07
4.26761e-08
-3.9702e-07
3.74774e-08
-4.09787e-07
3.20906e-08
-4.20346e-07
2.65466e-08
-4.28646e-07
2.08741e-08
-4.34646e-07
1.51002e-08
-4.38316e-07
9.2511e-09
-4.39638e-07
3.353e-09
-4.38602e-07
-2.56804e-09
-4.3521e-07
-8.48584e-09
-4.29475e-07
-1.43739e-08
-4.21419e-07
-2.02051e-08
-4.11077e-07
-2.59518e-08
-3.98494e-07
-3.1585e-08
-3.8373e-07
-3.70738e-08
-3.66857e-07
-4.23846e-08
-3.47963e-07
-4.74786e-08
-3.27156e-07
-5.23102e-08
-3.04566e-07
-5.68225e-08
-2.80354e-07
-6.09428e-08
-2.54717e-07
-6.45762e-08
-2.27901e-07
-6.75989e-08
-2.00212e-07
-6.98511e-08
-1.7203e-07
-7.11309e-08
-1.43823e-07
-7.1193e-08
-1.16157e-07
-6.97535e-08
-8.96987e-08
-6.65064e-08
-6.52048e-08
-6.11577e-08
-4.34965e-08
-5.34856e-08
-2.54086e-08
-4.34383e-08
-1.17197e-08
-3.1273e-08
-3.07817e-09
-1.77603e-08
-4.6516e-09
-4.12045e-09
8.74258e-09
-1.51439e-08
2.86709e-08
-3.20625e-08
4.79865e-08
-5.39251e-08
6.5003e-08
-7.97668e-08
7.89435e-08
-1.08632e-07
8.95672e-08
-1.39612e-07
9.69796e-08
-1.7188e-07
1.01487e-07
-2.04708e-07
1.03486e-07
-2.37478e-07
1.03391e-07
-2.69673e-07
1.01588e-07
-3.00871e-07
9.84115e-08
-3.30727e-07
9.41397e-08
-3.58964e-07
8.89929e-08
-3.85355e-07
8.31426e-08
-4.09714e-07
7.67196e-08
-4.31887e-07
6.98247e-08
-4.51747e-07
6.25362e-08
-4.69187e-07
5.49172e-08
-4.84117e-07
4.70204e-08
-4.96463e-07
3.88925e-08
-5.06164e-07
3.05757e-08
-5.13174e-07
2.21104e-08
-5.17459e-07
1.35354e-08
-5.18995e-07
4.88918e-09
-5.17773e-07
-3.79008e-09
-5.13795e-07
-1.24639e-08
-5.07075e-07
-2.10934e-08
-4.97641e-07
-2.9639e-08
-4.85534e-07
-3.80596e-08
-4.70806e-07
-4.63126e-08
-4.53528e-07
-5.43522e-08
-4.33784e-07
-6.21281e-08
-4.1168e-07
-6.9583e-08
-3.87341e-07
-7.66487e-08
-3.60923e-07
-8.32411e-08
-3.32612e-07
-8.92538e-08
-3.02639e-07
-9.45491e-08
-2.71288e-07
-9.89494e-08
-2.38911e-07
-1.02228e-07
-2.05939e-07
-1.04103e-07
-1.72899e-07
-1.04234e-07
-1.40419e-07
-1.02233e-07
-1.09238e-07
-9.76877e-08
-8.01918e-08
-9.02037e-08
-5.41967e-08
-7.94807e-08
-3.22137e-08
-6.54213e-08
-1.52102e-08
-4.82764e-08
-4.13718e-09
-2.88334e-08
-8.78875e-09
-4.94839e-09
1.3691e-08
-1.79876e-08
4.17101e-08
-3.77176e-08
6.77166e-08
-6.2906e-08
9.01914e-08
-9.2398e-08
1.08435e-07
-1.2511e-07
1.22279e-07
-1.60044e-07
1.31914e-07
-1.96306e-07
1.37749e-07
-2.33115e-07
1.40295e-07
-2.69804e-07
1.4008e-07
-3.05817e-07
1.37601e-07
-3.40696e-07
1.3329e-07
-3.74064e-07
1.27508e-07
-4.05617e-07
1.20545e-07
-4.35103e-07
1.12628e-07
-4.62316e-07
1.03933e-07
-4.87085e-07
9.45941e-08
-5.09268e-07
8.47193e-08
-5.28746e-07
7.43945e-08
-5.45418e-07
6.36924e-08
-5.59202e-07
5.26766e-08
-5.70031e-07
4.14052e-08
-5.77854e-07
2.99332e-08
-5.82632e-07
1.83134e-08
-5.84341e-07
6.59779e-09
-5.82969e-07
-5.16181e-09
-5.78519e-07
-1.69135e-08
-5.71008e-07
-2.86046e-08
-5.60466e-07
-4.01816e-08
-5.46936e-07
-5.15888e-08
-5.30481e-07
-6.2768e-08
-5.11176e-07
-7.3657e-08
-4.89117e-07
-8.41869e-08
-4.64421e-07
-9.42792e-08
-4.37229e-07
-1.03841e-07
-4.07712e-07
-1.12758e-07
-3.76078e-07
-1.20887e-07
-3.42583e-07
-1.28044e-07
-3.07539e-07
-1.33993e-07
-2.71329e-07
-1.38438e-07
-2.34422e-07
-1.4101e-07
-1.97385e-07
-1.41271e-07
-1.60895e-07
-1.38723e-07
-1.25745e-07
-1.32838e-07
-9.284e-08
-1.23109e-07
-6.31853e-08
-1.09135e-07
-3.78704e-08
-9.07362e-08
-1.80527e-08
-6.80941e-08
-4.9638e-09
-4.19223e-08
-1.37525e-08
-5.58661e-09
1.92776e-08
-2.02669e-08
5.63904e-08
-4.23506e-08
8.98003e-08
-7.03656e-08
1.18206e-07
-1.0298e-07
1.4105e-07
-1.38984e-07
1.58283e-07
-1.77291e-07
1.70221e-07
-2.16943e-07
1.77401e-07
-2.5711e-07
1.80462e-07
-2.97088e-07
1.80058e-07
-3.36289e-07
1.76802e-07
-3.74227e-07
1.71228e-07
-4.10505e-07
1.63786e-07
-4.44795e-07
1.54836e-07
-4.7683e-07
1.44664e-07
-5.06389e-07
1.33492e-07
-5.33289e-07
1.21494e-07
-5.57375e-07
1.08806e-07
-5.7852e-07
9.55396e-08
-5.96617e-07
8.17889e-08
-6.11577e-07
6.76362e-08
-6.23328e-07
5.31566e-08
-6.31815e-07
3.84204e-08
-6.36998e-07
2.34958e-08
-6.38849e-07
8.44926e-09
-6.37358e-07
-6.65304e-09
-6.32527e-07
-2.17448e-08
-6.24372e-07
-3.67587e-08
-6.12928e-07
-5.16262e-08
-5.98241e-07
-6.6276e-08
-5.80375e-07
-8.06334e-08
-5.59414e-07
-9.4618e-08
-5.3546e-07
-1.08141e-07
-5.08638e-07
-1.21101e-07
-4.79099e-07
-1.33379e-07
-4.47029e-07
-1.44829e-07
-4.12651e-07
-1.55266e-07
-3.76236e-07
-1.64459e-07
-3.38118e-07
-1.72111e-07
-2.98705e-07
-1.77851e-07
-2.58492e-07
-1.81223e-07
-2.18079e-07
-1.81684e-07
-1.78182e-07
-1.78619e-07
-1.39644e-07
-1.71376e-07
-1.03434e-07
-1.59319e-07
-7.06479e-08
-1.41922e-07
-4.25011e-08
-1.18883e-07
-2.03283e-08
-9.02669e-08
-5.5998e-09
-5.66507e-08
-1.93523e-08
-6.08509e-09
2.53627e-08
-2.21085e-08
7.24137e-08
-4.61723e-08
1.13864e-07
-7.66092e-08
1.48643e-07
-1.11929e-07
1.76369e-07
-1.50801e-07
1.97156e-07
-1.92052e-07
2.11472e-07
-2.34659e-07
2.20007e-07
-2.77743e-07
2.23547e-07
-3.20567e-07
2.22882e-07
-3.62515e-07
2.1875e-07
-4.03078e-07
2.11792e-07
-4.41842e-07
2.02549e-07
-4.78463e-07
1.91457e-07
-5.12662e-07
1.78863e-07
-5.44207e-07
1.65037e-07
-5.72906e-07
1.50192e-07
-5.98596e-07
1.34496e-07
-6.21145e-07
1.18088e-07
-6.40439e-07
1.01083e-07
-6.56386e-07
8.35835e-08
-6.68912e-07
6.56825e-08
-6.77958e-07
4.74669e-08
-6.83483e-07
2.90203e-08
-6.85458e-07
1.04245e-08
-6.83872e-07
-8.23938e-09
-6.78726e-07
-2.68901e-08
-6.7004e-07
-4.54454e-08
-6.57845e-07
-6.38209e-08
-6.42192e-07
-8.19291e-08
-6.23147e-07
-9.96779e-08
-6.00797e-07
-1.16968e-07
-5.75249e-07
-1.33689e-07
-5.46634e-07
-1.49717e-07
-5.15111e-07
-1.64903e-07
-4.80872e-07
-1.79067e-07
-4.44154e-07
-1.91984e-07
-4.05241e-07
-2.03372e-07
-3.64481e-07
-2.1287e-07
-3.22302e-07
-2.20031e-07
-2.79222e-07
-2.24303e-07
-2.35869e-07
-2.25036e-07
-1.92997e-07
-2.21491e-07
-1.51496e-07
-2.12877e-07
-1.12401e-07
-1.98414e-07
-7.6898e-08
-1.77425e-07
-4.63221e-08
-1.49459e-07
-2.21667e-08
-1.14422e-07
-6.09617e-09
-7.27212e-08
-2.54485e-08
-6.4905e-09
3.18532e-08
-2.36456e-08
8.95689e-08
-4.94178e-08
1.39636e-07
-8.19818e-08
1.81207e-07
-1.19708e-07
2.14096e-07
-1.61155e-07
2.38602e-07
-2.05059e-07
2.55376e-07
-2.50332e-07
2.6528e-07
-2.96049e-07
2.69264e-07
-3.41435e-07
2.68268e-07
-3.85848e-07
2.63162e-07
-4.28759e-07
2.54703e-07
-4.69737e-07
2.43527e-07
-5.08428e-07
2.30148e-07
-5.4454e-07
2.14976e-07
-5.77836e-07
1.98333e-07
-6.08115e-07
1.80471e-07
-6.35212e-07
1.61593e-07
-6.58989e-07
1.41864e-07
-6.79329e-07
1.21424e-07
-6.96139e-07
1.00394e-07
-7.09342e-07
7.88855e-08
-7.18879e-07
5.70035e-08
-7.24706e-07
3.4847e-08
-7.26795e-07
1.25133e-08
-7.25132e-07
-9.90154e-09
-7.19722e-07
-3.2301e-08
-7.1058e-07
-5.45874e-08
-6.9774e-07
-7.66606e-08
-6.81253e-07
-9.84162e-08
-6.61186e-07
-1.19744e-07
-6.37628e-07
-1.40526e-07
-6.10688e-07
-1.6063e-07
-5.80499e-07
-1.79905e-07
-5.47228e-07
-1.98174e-07
-5.11072e-07
-2.15223e-07
-4.72274e-07
-2.30782e-07
-4.31131e-07
-2.44515e-07
-3.88003e-07
-2.55998e-07
-3.43334e-07
-2.64699e-07
-2.97665e-07
-2.69973e-07
-2.51651e-07
-2.7105e-07
-2.06084e-07
-2.67058e-07
-1.61905e-07
-2.57057e-07
-1.20214e-07
-2.40104e-07
-8.22869e-08
-2.15353e-07
-4.95728e-08
-1.82173e-07
-2.37034e-08
-1.40292e-07
-6.50027e-09
-8.99243e-08
-3.19488e-08
-6.84218e-09
3.86954e-08
-2.49996e-08
1.07726e-07
-5.23102e-08
1.66947e-07
-8.68177e-08
2.15715e-07
-1.26769e-07
2.54047e-07
-1.70615e-07
2.82448e-07
-2.17008e-07
3.01769e-07
-2.6479e-07
3.13063e-07
-3.12987e-07
3.17461e-07
-3.60785e-07
3.16066e-07
-4.07514e-07
3.09891e-07
-4.52625e-07
2.99814e-07
-4.95671e-07
2.86573e-07
-5.36287e-07
2.70764e-07
-5.74175e-07
2.52863e-07
-6.09089e-07
2.33246e-07
-6.40824e-07
2.12207e-07
-6.69214e-07
1.89983e-07
-6.94116e-07
1.66767e-07
-7.15415e-07
1.42722e-07
-7.33015e-07
1.17993e-07
-7.46838e-07
9.27089e-08
-7.56826e-07
6.69908e-08
-7.62933e-07
4.09544e-08
-7.65132e-07
1.47122e-08
-7.63409e-07
-1.16245e-08
-7.57766e-07
-3.79443e-08
-7.48219e-07
-6.41342e-08
-7.34801e-07
-9.0078e-08
-7.17563e-07
-1.15655e-07
-6.96571e-07
-1.40736e-07
-6.71913e-07
-1.65184e-07
-6.437e-07
-1.88843e-07
-6.12067e-07
-2.11538e-07
-5.77181e-07
-2.3306e-07
-5.39246e-07
-2.53158e-07
-4.98511e-07
-2.71517e-07
-4.5528e-07
-2.87746e-07
-4.09927e-07
-3.01351e-07
-3.62911e-07
-3.11715e-07
-3.14795e-07
-3.18089e-07
-2.66265e-07
-3.1958e-07
-2.18152e-07
-3.15171e-07
-1.7145e-07
-3.03759e-07
-1.2733e-07
-2.84224e-07
-8.71539e-08
-2.55529e-07
-5.24791e-08
-2.16848e-07
-2.50611e-08
-1.6771e-07
-6.85189e-09
-1.08134e-07
-3.88006e-08
-7.1716e-09
4.5867e-08
-2.62726e-08
1.26827e-07
-5.50442e-08
1.95719e-07
-9.14143e-08
2.52085e-07
-1.33516e-07
2.96149e-07
-1.79698e-07
3.2863e-07
-2.28526e-07
3.50596e-07
-2.78772e-07
3.6331e-07
-3.29408e-07
3.68097e-07
-3.79579e-07
3.66237e-07
-4.28583e-07
3.58896e-07
-4.75852e-07
3.47082e-07
-5.20921e-07
3.31641e-07
-5.63414e-07
3.13258e-07
-6.03027e-07
2.92476e-07
-6.39507e-07
2.69727e-07
-6.7265e-07
2.4535e-07
-7.02284e-07
2.19617e-07
-7.28268e-07
1.92751e-07
-7.50486e-07
1.6494e-07
-7.68842e-07
1.3635e-07
-7.83261e-07
1.07128e-07
-7.93683e-07
7.74124e-08
-8.00064e-07
4.73351e-08
-8.02375e-07
1.70234e-08
-8.00603e-07
-1.33967e-08
-7.94748e-07
-4.37992e-08
-7.84826e-07
-7.40562e-08
-7.70868e-07
-1.04036e-07
-7.52921e-07
-1.33601e-07
-7.31052e-07
-1.62605e-07
-7.05348e-07
-1.90889e-07
-6.75916e-07
-2.18275e-07
-6.42892e-07
-2.44561e-07
-6.06446e-07
-2.69507e-07
-5.66783e-07
-2.92821e-07
-5.24156e-07
-3.14144e-07
-4.78879e-07
-3.33024e-07
-4.31337e-07
-3.48893e-07
-3.82006e-07
-3.61046e-07
-3.31474e-07
-3.68621e-07
-2.80459e-07
-3.70594e-07
-2.29836e-07
-3.65794e-07
-1.80655e-07
-3.5294e-07
-1.3416e-07
-3.3072e-07
-9.18002e-08
-2.97888e-07
-5.52382e-08
-2.5341e-07
-2.63434e-08
-1.96604e-07
-7.18274e-09
-1.27294e-07
-4.59834e-08
-7.50313e-09
5.33701e-08
-2.75476e-08
1.46872e-07
-5.77818e-08
2.25953e-07
-9.60238e-08
2.90327e-07
-1.40297e-07
3.40422e-07
-1.88847e-07
3.77181e-07
-2.40152e-07
4.01901e-07
-2.92912e-07
4.1607e-07
-3.46039e-07
4.21224e-07
-3.98634e-07
4.18832e-07
-4.49962e-07
4.10224e-07
-4.9943e-07
3.9655e-07
-5.46556e-07
3.78768e-07
-5.90953e-07
3.57655e-07
-6.3231e-07
3.33832e-07
-6.7037e-07
3.07787e-07
-7.04925e-07
2.79905e-07
-7.35806e-07
2.50498e-07
-7.62872e-07
2.19816e-07
-7.86007e-07
1.88076e-07
-8.05119e-07
1.55462e-07
-8.20132e-07
1.22141e-07
-8.30989e-07
8.82693e-08
-8.37647e-07
5.39927e-08
-8.40077e-07
1.94534e-08
-8.38265e-07
-1.52088e-08
-8.3221e-07
-4.9854e-08
-8.21926e-07
-8.434e-08
-8.07442e-07
-1.1852e-07
-7.88802e-07
-1.52241e-07
-7.6607e-07
-1.85338e-07
-7.39328e-07
-2.17631e-07
-7.08682e-07
-2.48921e-07
-6.74268e-07
-2.78976e-07
-6.36251e-07
-3.07523e-07
-5.94841e-07
-3.34231e-07
-5.50295e-07
-3.5869e-07
-5.02933e-07
-3.80385e-07
-4.53154e-07
-3.98672e-07
-4.01452e-07
-4.12747e-07
-3.48442e-07
-4.21631e-07
-2.94879e-07
-4.24158e-07
-2.41684e-07
-4.18989e-07
-1.89969e-07
-4.04655e-07
-1.41054e-07
-3.79634e-07
-9.64806e-08
-3.42462e-07
-5.80135e-08
-2.91877e-07
-2.76336e-08
-2.26984e-07
-7.51738e-09
-1.4741e-07
-5.35008e-08
-7.85527e-09
6.12254e-08
-2.88898e-08
1.67906e-07
-6.06536e-08
2.57717e-07
-1.00853e-07
3.30526e-07
-1.47399e-07
3.86968e-07
-1.98433e-07
4.28215e-07
-2.5234e-07
4.55808e-07
-3.07743e-07
4.71473e-07
-3.63491e-07
4.76971e-07
-4.18636e-07
4.73976e-07
-4.72405e-07
4.63994e-07
-5.24179e-07
4.48323e-07
-5.73458e-07
4.28046e-07
-6.19843e-07
4.0404e-07
-6.63013e-07
3.77003e-07
-7.02712e-07
3.47485e-07
-7.38729e-07
3.15923e-07
-7.70896e-07
2.82664e-07
-7.99074e-07
2.47995e-07
-8.23152e-07
2.12154e-07
-8.43039e-07
1.75349e-07
-8.58663e-07
1.37765e-07
-8.69969e-07
9.9575e-08
-8.76915e-07
6.09386e-08
-8.79473e-07
2.20117e-08
-8.77629e-07
-1.70531e-08
-8.7138e-07
-5.61029e-08
-8.60738e-07
-9.49825e-08
-8.45727e-07
-1.33531e-07
-8.26388e-07
-1.7158e-07
-8.02779e-07
-2.08946e-07
-7.74979e-07
-2.45431e-07
-7.4309e-07
-2.8081e-07
-7.07242e-07
-3.14824e-07
-6.676e-07
-3.47165e-07
-6.24372e-07
-3.77459e-07
-5.77821e-07
-4.05242e-07
-5.28274e-07
-4.29933e-07
-4.76143e-07
-4.50803e-07
-4.21944e-07
-4.66947e-07
-3.66319e-07
-4.77256e-07
-3.10064e-07
-4.80412e-07
-2.54154e-07
-4.74899e-07
-1.99768e-07
-4.59042e-07
-1.48305e-07
-4.31096e-07
-1.01405e-07
-3.89362e-07
-6.09372e-08
-3.32344e-07
-2.89976e-08
-2.58924e-07
-7.8744e-09
-1.68534e-07
-6.13752e-08
-8.24199e-09
6.94674e-08
-3.03502e-08
1.90015e-07
-6.3764e-08
2.9113e-07
-1.0607e-07
3.72832e-07
-1.55059e-07
4.35957e-07
-2.08762e-07
4.81919e-07
-2.65466e-07
5.12511e-07
-3.23708e-07
5.29716e-07
-3.8227e-07
5.35533e-07
-4.40149e-07
5.31855e-07
-4.96533e-07
5.20378e-07
-5.50772e-07
5.02562e-07
-6.02346e-07
4.7962e-07
-6.50843e-07
4.52538e-07
-6.95936e-07
4.22096e-07
-7.37365e-07
3.88914e-07
-7.74922e-07
3.53479e-07
-8.08439e-07
3.16181e-07
-8.37783e-07
2.77339e-07
-8.62846e-07
2.37217e-07
-8.83542e-07
1.96045e-07
-8.99805e-07
1.54028e-07
-9.11581e-07
1.11351e-07
-9.18832e-07
6.81893e-08
-9.2153e-07
2.47101e-08
-9.19661e-07
-1.89222e-08
-9.1322e-07
-6.25437e-08
-9.02215e-07
-1.05987e-07
-8.86667e-07
-1.49079e-07
-8.66611e-07
-1.91636e-07
-8.42098e-07
-2.33459e-07
-8.132e-07
-2.74329e-07
-7.80012e-07
-3.13998e-07
-7.4266e-07
-3.52176e-07
-7.01304e-07
-3.8852e-07
-6.56153e-07
-4.2261e-07
-6.0747e-07
-4.53925e-07
-5.5559e-07
-4.81812e-07
-5.00941e-07
-5.05452e-07
-4.4406e-07
-5.23828e-07
-3.85623e-07
-5.35693e-07
-3.26469e-07
-5.39566e-07
-2.67633e-07
-5.33735e-07
-2.10364e-07
-5.1631e-07
-1.56155e-07
-4.85306e-07
-1.06743e-07
-4.38774e-07
-6.41149e-08
-3.74972e-07
-3.04869e-08
-2.92552e-07
-8.26788e-09
-1.90753e-07
-6.96431e-08
-8.67409e-09
7.81415e-08
-3.19692e-08
2.1331e-07
-6.71974e-08
3.26359e-07
-1.11811e-07
4.17446e-07
-1.63473e-07
4.87618e-07
-2.20091e-07
5.38537e-07
-2.79844e-07
5.72264e-07
-3.41179e-07
5.91051e-07
-4.02801e-07
5.97155e-07
-4.63648e-07
5.92702e-07
-5.22863e-07
5.79593e-07
-5.79764e-07
5.59462e-07
-6.33809e-07
5.33666e-07
-6.84574e-07
5.03302e-07
-7.31725e-07
4.69247e-07
-7.74999e-07
4.32188e-07
-8.1419e-07
3.9267e-07
-8.49137e-07
3.51128e-07
-8.79711e-07
3.07913e-07
-9.05812e-07
2.63318e-07
-9.27361e-07
2.17594e-07
-9.44295e-07
1.70962e-07
-9.56568e-07
1.23624e-07
-9.64143e-07
7.57642e-08
-9.66995e-07
2.75623e-08
-9.65108e-07
-2.08086e-08
-9.58477e-07
-6.9175e-08
-9.47104e-07
-1.1736e-07
-9.31005e-07
-1.65179e-07
-9.10206e-07
-2.12435e-07
-8.84752e-07
-2.58914e-07
-8.54704e-07
-3.04377e-07
-8.2015e-07
-3.48552e-07
-7.81206e-07
-3.9112e-07
-7.38029e-07
-4.31697e-07
-6.90821e-07
-4.69817e-07
-6.39849e-07
-5.04897e-07
-5.85455e-07
-5.36205e-07
-5.28081e-07
-5.62826e-07
-4.6829e-07
-5.83619e-07
-4.06792e-07
-5.97191e-07
-3.44477e-07
-6.0188e-07
-2.82444e-07
-5.95769e-07
-2.22023e-07
-5.76731e-07
-1.64803e-07
-5.42526e-07
-1.12636e-07
-4.90942e-07
-6.76332e-08
-4.19975e-07
-3.21428e-08
-3.28042e-07
-8.70873e-09
-2.14187e-07
-7.83518e-08
-9.16034e-09
8.73018e-08
-3.37806e-08
2.3793e-07
-7.10254e-08
3.63603e-07
-1.18197e-07
4.64617e-07
-1.7281e-07
5.42232e-07
-2.32641e-07
5.98368e-07
-2.95749e-07
6.35372e-07
-3.60478e-07
6.5578e-07
-4.2545e-07
6.62127e-07
-4.89539e-07
6.56791e-07
-5.51838e-07
6.41892e-07
-6.11628e-07
6.19253e-07
-6.68346e-07
5.90384e-07
-7.21554e-07
5.5651e-07
-7.70912e-07
5.18604e-07
-8.16157e-07
4.77433e-07
-8.57089e-07
4.33602e-07
-8.93552e-07
3.87591e-07
-9.25427e-07
3.39788e-07
-9.52623e-07
2.90513e-07
-9.75068e-07
2.40039e-07
-9.9271e-07
1.88604e-07
-1.00551e-06
1.3642e-07
-1.01343e-06
8.36843e-08
-1.01645e-06
3.05828e-08
-1.01455e-06
-2.27035e-08
-1.00773e-06
-7.59945e-08
-9.95986e-07
-1.29106e-07
-9.79322e-07
-1.81844e-07
-9.57756e-07
-2.34e-07
-9.31322e-07
-2.85348e-07
-9.0007e-07
-3.35629e-07
-8.64077e-07
-3.84546e-07
-8.23446e-07
-4.3175e-07
-7.78326e-07
-4.76817e-07
-7.28915e-07
-5.19229e-07
-6.75477e-07
-5.58335e-07
-6.18363e-07
-5.9332e-07
-5.58027e-07
-6.23162e-07
-4.9506e-07
-6.46587e-07
-4.30211e-07
-6.6204e-07
-3.64426e-07
-6.67666e-07
-2.98873e-07
-6.61322e-07
-2.34975e-07
-6.40629e-07
-1.74427e-07
-6.03074e-07
-1.19207e-07
-5.46161e-07
-7.15658e-08
-4.67617e-07
-3.4e-08
-3.65608e-07
-9.20597e-09
-2.38981e-07
-8.75578e-08
-9.70859e-09
9.70104e-08
-3.58148e-08
2.64036e-07
-7.53125e-08
4.03101e-07
-1.25332e-07
5.14636e-07
-1.83225e-07
6.00125e-07
-2.46616e-07
6.61759e-07
-3.1343e-07
7.02185e-07
-3.81899e-07
7.24249e-07
-4.50552e-07
7.30781e-07
-5.1819e-07
7.24429e-07
-5.83852e-07
7.07554e-07
-6.46782e-07
6.82183e-07
-7.06392e-07
6.49994e-07
-7.62231e-07
6.12349e-07
-8.13954e-07
5.70327e-07
-8.61303e-07
5.24782e-07
-9.04082e-07
4.76382e-07
-9.42148e-07
4.25657e-07
-9.75393e-07
3.73032e-07
-1.00374e-06
3.18857e-07
-1.02712e-06
2.63424e-07
-1.0455e-06
2.06986e-07
-1.05885e-06
1.49767e-07
-1.06714e-06
9.19699e-08
-1.07034e-06
3.37873e-08
-1.06845e-06
-2.45963e-08
-1.06144e-06
-8.29968e-08
-1.04933e-06
-1.41225e-07
-1.03209e-06
-1.99083e-07
-1.00973e-06
-2.56353e-07
-9.82286e-07
-3.12795e-07
-9.49781e-07
-3.68134e-07
-9.12276e-07
-4.2205e-07
-8.69864e-07
-4.74162e-07
-8.22679e-07
-5.24003e-07
-7.70909e-07
-5.70998e-07
-7.14817e-07
-6.14427e-07
-6.54757e-07
-6.5338e-07
-5.912e-07
-6.86719e-07
-5.24762e-07
-7.13025e-07
-4.56236e-07
-7.30566e-07
-3.86628e-07
-7.37274e-07
-3.17186e-07
-7.30763e-07
-2.49434e-07
-7.0838e-07
-1.85189e-07
-6.67319e-07
-1.26569e-07
-6.04782e-07
-7.59804e-08
-5.18205e-07
-3.60902e-08
-4.05498e-07
-9.76776e-09
-2.65303e-07
-9.73256e-08
-1.03265e-08
1.07337e-07
-3.81014e-08
2.91811e-07
-8.01221e-08
4.45122e-07
-1.33323e-07
5.67837e-07
-1.94869e-07
6.61671e-07
-2.62213e-07
7.29104e-07
-3.33132e-07
7.73104e-07
-4.05729e-07
7.96846e-07
-4.7843e-07
8.03482e-07
-5.49955e-07
7.95954e-07
-6.19284e-07
7.76884e-07
-6.8562e-07
7.48519e-07
-7.48351e-07
7.12725e-07
-8.07014e-07
6.71011e-07
-8.61263e-07
6.24576e-07
-9.10843e-07
5.74363e-07
-9.55573e-07
5.21112e-07
-9.95321e-07
4.65405e-07
-1.03e-06
4.07708e-07
-1.05954e-06
3.48396e-07
-1.0839e-06
2.87784e-07
-1.10305e-06
2.26137e-07
-1.11697e-06
1.63686e-07
-1.12564e-06
1.0064e-07
-1.12904e-06
3.71915e-08
-1.12716e-06
-2.64735e-08
-1.11999e-06
-9.01715e-08
-1.1075e-06
-1.53713e-07
-1.08968e-06
-2.16897e-07
-1.06654e-06
-2.79502e-07
-1.03805e-06
-3.41277e-07
-1.00425e-06
-4.01933e-07
-9.65178e-07
-4.61127e-07
-9.20896e-07
-5.18443e-07
-8.71527e-07
-5.73373e-07
-8.17245e-07
-6.2528e-07
-7.58306e-07
-6.73366e-07
-6.95065e-07
-7.16621e-07
-6.28008e-07
-7.53776e-07
-5.57779e-07
-7.83254e-07
-4.85217e-07
-8.03127e-07
-4.11394e-07
-8.11097e-07
-3.37649e-07
-8.04508e-07
-2.65617e-07
-7.80412e-07
-1.97253e-07
-7.35683e-07
-1.34833e-07
-6.67202e-07
-8.09449e-08
-5.72093e-07
-3.8445e-08
-4.47998e-07
-1.04022e-08
-2.93346e-07
-1.07728e-07
-1.10225e-08
1.18359e-07
-4.06723e-08
3.21461e-07
-8.55215e-08
4.89971e-07
-1.4228e-07
6.24596e-07
-2.07901e-07
7.27291e-07
-2.79643e-07
8.00846e-07
-3.5511e-07
8.48571e-07
-4.32265e-07
8.74001e-07
-5.09415e-07
8.80632e-07
-5.85192e-07
8.7173e-07
-6.58511e-07
8.50203e-07
-7.28533e-07
8.18541e-07
-7.9462e-07
7.78813e-07
-8.563e-07
7.3269e-07
-9.13228e-07
6.81504e-07
-9.65161e-07
6.26296e-07
-1.01193e-06
5.67882e-07
-1.05343e-06
5.06903e-07
-1.08958e-06
4.43862e-07
-1.12035e-06
3.79165e-07
-1.14571e-06
3.13144e-07
-1.16565e-06
2.46075e-07
-1.18016e-06
1.78193e-07
-1.18923e-06
1.09709e-07
-1.19285e-06
4.08113e-08
-1.191e-06
-2.83185e-08
-1.18367e-06
-9.75018e-08
-1.17083e-06
-1.66554e-07
-1.15245e-06
-2.35275e-07
-1.12851e-06
-3.03444e-07
-1.09899e-06
-3.70802e-07
-1.06387e-06
-4.37049e-07
-1.02318e-06
-5.01819e-07
-9.76956e-07
-5.64666e-07
-9.25296e-07
-6.25033e-07
-8.68357e-07
-6.8222e-07
-8.06379e-07
-7.35343e-07
-7.39719e-07
-7.83281e-07
-6.68871e-07
-8.24624e-07
-5.94509e-07
-8.57617e-07
-5.17522e-07
-8.80115e-07
-4.39053e-07
-8.89565e-07
-3.60542e-07
-8.83019e-07
-2.83752e-07
-8.57202e-07
-2.10793e-07
-8.08643e-07
-1.44123e-07
-7.33871e-07
-8.65326e-08
-6.29684e-07
-4.10989e-08
-4.93432e-07
-1.11183e-08
-3.23327e-07
-1.18846e-07
-1.1806e-08
1.30165e-07
-4.35636e-08
3.53218e-07
-9.15872e-08
5.37995e-07
-1.5233e-07
6.85339e-07
-2.225e-07
7.97462e-07
-2.99136e-07
8.77482e-07
-3.79647e-07
9.29082e-07
-4.61831e-07
9.56185e-07
-5.43868e-07
9.62669e-07
-6.24288e-07
9.52151e-07
-7.01938e-07
9.27853e-07
-7.75932e-07
8.92535e-07
-8.45609e-07
8.4849e-07
-9.10491e-07
7.97572e-07
-9.7024e-07
7.41253e-07
-1.02463e-06
6.80685e-07
-1.07351e-06
6.16766e-07
-1.11681e-06
5.50197e-07
-1.15447e-06
4.81524e-07
-1.18648e-06
4.11181e-07
-1.21285e-06
3.39514e-07
-1.23359e-06
2.66807e-07
-1.24869e-06
1.93297e-07
-1.25817e-06
1.19188e-07
-1.26202e-06
4.46623e-08
-1.26023e-06
-3.01104e-08
-1.25277e-06
-1.04962e-07
-1.2396e-06
-1.79718e-07
-1.22069e-06
-2.54188e-07
-1.19598e-06
-3.28152e-07
-1.16543e-06
-4.01353e-07
-1.129e-06
-4.7348e-07
-1.08667e-06
-5.44149e-07
-1.03846e-06
-6.1288e-07
-9.8442e-07
-6.79069e-07
-9.24692e-07
-7.41948e-07
-8.59496e-07
-8.0054e-07
-7.89177e-07
-8.536e-07
-7.1424e-07
-8.99561e-07
-6.35385e-07
-9.36471e-07
-5.53553e-07
-9.61947e-07
-4.69969e-07
-9.7315e-07
-3.86181e-07
-9.66807e-07
-3.04098e-07
-9.39285e-07
-2.26007e-07
-8.86733e-07
-1.54576e-07
-8.05303e-07
-9.28272e-08
-6.91432e-07
-4.40913e-08
-5.42168e-07
-1.19263e-08
-3.55492e-07
-1.30772e-07
-1.26885e-08
1.42854e-07
-4.68184e-08
3.87348e-07
-9.84091e-08
5.89585e-07
-1.63619e-07
7.50548e-07
-2.38875e-07
8.72718e-07
-3.20962e-07
9.59568e-07
-4.07065e-07
1.01519e-06
-4.94799e-07
1.04392e-06
-5.82195e-07
1.05006e-06
-6.67674e-07
1.03763e-06
-7.50007e-07
1.01019e-06
-8.28263e-07
9.70791e-07
-9.01759e-07
9.21986e-07
-9.70014e-07
8.65828e-07
-1.03271e-06
8.03944e-07
-1.08963e-06
7.37608e-07
-1.14067e-06
6.67809e-07
-1.18578e-06
5.95309e-07
-1.22496e-06
5.20698e-07
-1.25821e-06
4.44435e-07
-1.28558e-06
3.66881e-07
-1.30709e-06
2.88322e-07
-1.32279e-06
2.08992e-07
-1.33268e-06
1.29082e-07
-1.33678e-06
4.87589e-08
-1.33507e-06
-3.18235e-08
-1.32751e-06
-1.12516e-07
-1.31407e-06
-1.93162e-07
-1.29467e-06
-2.73585e-07
-1.26925e-06
-3.53577e-07
-1.23771e-06
-4.32886e-07
-1.2e-06
-5.11194e-07
-1.15605e-06
-5.88103e-07
-1.10582e-06
-6.63102e-07
-1.04935e-06
-7.35538e-07
-9.86732e-07
-8.0457e-07
-9.18152e-07
-8.69119e-07
-8.43946e-07
-9.27806e-07
-7.64619e-07
-9.78888e-07
-6.80897e-07
-1.02019e-06
-5.93773e-07
-1.04907e-06
-5.0456e-07
-1.06236e-06
-4.14931e-07
-1.05644e-06
-3.26957e-07
-1.02726e-06
-2.4313e-07
-9.70561e-07
-1.66356e-07
-8.82077e-07
-9.99288e-08
-7.57859e-07
-4.74699e-08
-5.94627e-07
-1.28389e-08
-3.90123e-07
-1.43611e-07
-1.36842e-08
1.56538e-07
-5.04891e-08
4.24153e-07
-1.06096e-07
6.45192e-07
-1.76323e-07
8.20775e-07
-2.57274e-07
9.5367e-07
-3.45437e-07
1.04773e-06
-4.37745e-07
1.10749e-06
-5.31599e-07
1.13777e-06
-6.24865e-07
1.14333e-06
-7.15843e-07
1.12861e-06
-8.03223e-07
1.09756e-06
-8.86026e-07
1.05359e-06
-9.63554e-07
9.99515e-07
-1.03533e-06
9.37605e-07
-1.10106e-06
8.69669e-07
-1.16056e-06
7.97114e-07
-1.21377e-06
7.21021e-07
-1.26069e-06
6.42223e-07
-1.30134e-06
5.61351e-07
-1.3358e-06
4.7889e-07
-1.36412e-06
3.95208e-07
-1.38639e-06
3.10591e-07
-1.40266e-06
2.25259e-07
-1.41296e-06
1.39385e-07
-1.41732e-06
5.31143e-08
-1.41572e-06
-3.34267e-08
-1.40812e-06
-1.20116e-07
-1.39446e-06
-2.06821e-07
-1.37465e-06
-2.93392e-07
-1.34859e-06
-3.79638e-07
-1.31616e-06
-4.65318e-07
-1.27724e-06
-5.50118e-07
-1.23171e-06
-6.33627e-07
-1.1795e-06
-7.15308e-07
-1.12059e-06
-7.94457e-07
-1.055e-06
-8.70156e-07
-9.82903e-07
-9.41217e-07
-9.04597e-07
-1.00611e-06
-8.20584e-07
-1.0629e-06
-7.31608e-07
-1.10917e-06
-6.38719e-07
-1.14196e-06
-5.43321e-07
-1.15776e-06
-4.47226e-07
-1.15253e-06
-3.52692e-07
-1.12179e-06
-2.62443e-07
-1.06081e-06
-1.79663e-07
-9.64857e-07
-1.0796e-07
-8.29562e-07
-5.12932e-08
-6.51293e-07
-1.38717e-08
-4.27544e-07
-1.57483e-07
-1.48105e-08
1.71348e-07
-5.46409e-08
4.63984e-07
-1.14783e-07
7.05334e-07
-1.90659e-07
8.96651e-07
-2.77998e-07
1.04101e-06
-3.72947e-07
1.14268e-06
-4.72142e-07
1.20669e-06
-5.72743e-07
1.23837e-06
-6.7243e-07
1.24302e-06
-7.69368e-07
1.22555e-06
-8.62161e-07
1.19036e-06
-9.49787e-07
1.14122e-06
-1.03154e-06
1.08126e-06
-1.10695e-06
1.01302e-06
-1.17576e-06
9.38481e-07
-1.23785e-06
8.59201e-07
-1.2932e-06
7.76367e-07
-1.34185e-06
6.90878e-07
-1.38391e-06
6.03411e-07
-1.41949e-06
5.14469e-07
-1.44871e-06
4.24426e-07
-1.47167e-06
3.33556e-07
-1.48847e-06
2.4206e-07
-1.49917e-06
1.50084e-07
-1.5038e-06
5.77394e-08
-1.50234e-06
-3.48825e-08
-1.49476e-06
-1.27697e-07
-1.48097e-06
-2.20609e-07
-1.46086e-06
-3.13501e-07
-1.43429e-06
-4.06212e-07
-1.40108e-06
-4.98522e-07
-1.36107e-06
-5.90128e-07
-1.31409e-06
-6.80613e-07
-1.25998e-06
-7.69417e-07
-1.19865e-06
-8.55787e-07
-1.13008e-06
-9.38726e-07
-1.05437e-06
-1.01693e-06
-9.71781e-07
-1.0887e-06
-8.82799e-07
-1.15188e-06
-7.88181e-07
-1.20379e-06
-6.89028e-07
-1.24111e-06
-5.86842e-07
-1.25995e-06
-4.83591e-07
-1.25578e-06
-3.81743e-07
-1.22364e-06
-2.84291e-07
-1.15826e-06
-1.94743e-07
-1.05441e-06
-1.17072e-07
-9.07233e-07
-5.56343e-08
-7.12731e-07
-1.50443e-08
-4.68134e-07
-1.72527e-07
-1.60899e-08
1.87438e-07
-5.93553e-08
5.07249e-07
-1.24636e-07
7.70615e-07
-2.06895e-07
9.7891e-07
-3.0142e-07
1.13553e-06
-4.03959e-07
1.24522e-06
-5.10807e-07
1.31354e-06
-6.18845e-07
1.34641e-06
-7.25542e-07
1.34971e-06
-8.28918e-07
1.32892e-06
-9.27488e-07
1.28893e-06
-1.02019e-06
1.23392e-06
-1.10632e-06
1.16739e-06
-1.18543e-06
1.09214e-06
-1.25733e-06
1.01037e-06
-1.32194e-06
9.23813e-07
-1.37932e-06
8.3375e-07
-1.4296e-06
7.41157e-07
-1.47294e-06
6.4675e-07
-1.50952e-06
5.51049e-07
-1.53952e-06