/*--------------------------------*- C++ -*----------------------------------*\
  =========                 |
  \\      /  F ield         | OpenFOAM: The Open Source CFD Toolbox
   \\    /   O peration     | Website:  https://openfoam.org
    \\  /    A nd           | Version:  7
     \\/     M anipulation  |
\*---------------------------------------------------------------------------*/
FoamFile
{
    version     2.0;
    format      ascii;
    class       volVectorField;
    location    "0.0064";
    object      U;
}
// * * * * * * * * * * * * * * * * * * * * * * * * * * * * * * * * * * * * * //

dimensions      [0 1 -1 0 0 0 0];

internalField   nonuniform List<vector> 
2500
(
(2.14116e-05 -2.15199e-05 0)
(3.44846e-05 -6.31778e-06 0)
(-2.0127e-05 2.0265e-05 0)
(-0.000144647 4.43944e-05 0)
(-0.000327161 6.28063e-05 0)
(-0.000553697 7.55249e-05 0)
(-0.000810614 8.34786e-05 0)
(-0.00108621 8.77173e-05 0)
(-0.00137108 8.91569e-05 0)
(-0.00165786 8.85278e-05 0)
(-0.00194092 8.63868e-05 0)
(-0.00221597 8.31441e-05 0)
(-0.00247979 7.90921e-05 0)
(-0.00272992 7.44334e-05 0)
(-0.00296444 6.9305e-05 0)
(-0.00318183 6.37987e-05 0)
(-0.00338087 5.79771e-05 0)
(-0.00356051 5.18849e-05 0)
(-0.00371987 4.5557e-05 0)
(-0.00385818 3.90235e-05 0)
(-0.00397481 3.23122e-05 0)
(-0.00406919 2.54515e-05 0)
(-0.00414089 1.84695e-05 0)
(-0.00418955 1.13948e-05 0)
(-0.00421492 4.25751e-06 0)
(-0.00421685 -2.91212e-06 0)
(-0.00419529 -1.00836e-05 0)
(-0.0041503 -1.72257e-05 0)
(-0.00408203 -2.43071e-05 0)
(-0.00399075 -3.12965e-05 0)
(-0.00387682 -3.81627e-05 0)
(-0.00374073 -4.48737e-05 0)
(-0.00358306 -5.13967e-05 0)
(-0.00340454 -5.76965e-05 0)
(-0.00320601 -6.37319e-05 0)
(-0.00298852 -6.94513e-05 0)
(-0.00275331 -7.47841e-05 0)
(-0.00250193 -7.96307e-05 0)
(-0.00223636 -8.38454e-05 0)
(-0.00195913 -8.72175e-05 0)
(-0.0016736 -8.94466e-05 0)
(-0.00138414 -9.01167e-05 0)
(-0.00109655 -8.86673e-05 0)
(-0.000818319 -8.43677e-05 0)
(-0.000558998 -7.63053e-05 0)
(-0.000330411 -6.34374e-05 0)
(-0.000146295 -4.48481e-05 0)
(-2.06281e-05 -2.05344e-05 0)
(3.45539e-05 6.17191e-06 0)
(2.15993e-05 2.15411e-05 0)
(6.49974e-06 -3.45513e-05 0)
(-5.62326e-05 5.67267e-05 0)
(-0.000272772 0.000183849 0)
(-0.000636603 0.000301831 0)
(-0.00112726 0.00039708 0)
(-0.00171872 0.000467117 0)
(-0.00238321 0.000513912 0)
(-0.00309495 0.000541029 0)
(-0.00383191 0.000552243 0)
(-0.00457593 0.000550974 0)
(-0.00531252 0.000540083 0)
(-0.00603031 0.000521846 0)
(-0.00672042 0.000497999 0)
(-0.00737596 0.000469824 0)
(-0.00799151 0.00043825 0)
(-0.00856271 0.00040394 0)
(-0.00908604 0.000367375 0)
(-0.00955857 0.000328911 0)
(-0.00997783 0.000288829 0)
(-0.0103417 0.000247364 0)
(-0.0106485 0.000204728 0)
(-0.0108966 0.000161121 0)
(-0.011085 0.000116737 0)
(-0.0112126 7.17692e-05 0)
(-0.0112788 2.64138e-05 0)
(-0.0112833 -1.91325e-05 0)
(-0.0112259 -6.4671e-05 0)
(-0.0111068 -0.000110001 0)
(-0.0109265 -0.000154918 0)
(-0.0106855 -0.000199216 0)
(-0.0103851 -0.000242683 0)
(-0.0100264 -0.000285099 0)
(-0.00961109 -0.000326226 0)
(-0.0091412 -0.0003658 0)
(-0.00861913 -0.000403507 0)
(-0.00804779 -0.000438953 0)
(-0.00743074 -0.000471617 0)
(-0.00677241 -0.000500792 0)
(-0.00607836 -0.000525506 0)
(-0.00535568 -0.000544433 0)
(-0.00461348 -0.0005558 0)
(-0.0038634 -0.000557302 0)
(-0.00312025 -0.00054606 0)
(-0.00240248 -0.000518655 0)
(-0.00173245 -0.000471331 0)
(-0.00113617 -0.000400562 0)
(-0.000641632 -0.000304433 0)
(-0.000274969 -0.000185501 0)
(-5.67162e-05 -5.74946e-05 0)
(6.58482e-06 3.46526e-05 0)
(-1.94854e-05 1.91123e-05 0)
(-0.000182256 0.000272792 0)
(-0.000575995 0.00057698 0)
(-0.00116852 0.000858944 0)
(-0.00192967 0.0010917 0)
(-0.00282694 0.00126753 0)
(-0.00382465 0.00138837 0)
(-0.00488861 0.00146072 0)
(-0.00598869 0.00149249 0)
(-0.0070994 0.00149145 0)
(-0.00819986 0.00146447 0)
(-0.0092733 0.00141725 0)
(-0.0103064 0.00135429 0)
(-0.0112886 0.00127903 0)
(-0.0122116 0.00119403 0)
(-0.0130686 0.00110117 0)
(-0.013854 0.00100185 0)
(-0.0145633 0.000897129 0)
(-0.0151928 0.000787836 0)
(-0.015739 0.000674673 0)
(-0.0161995 0.000558256 0)
(-0.0165718 0.000439159 0)
(-0.0168543 0.000317933 0)
(-0.0170455 0.000195122 0)
(-0.0171444 7.12664e-05 0)
(-0.0171506 -5.30918e-05 0)
(-0.0170637 -0.000177404 0)
(-0.0168842 -0.000301117 0)
(-0.0166126 -0.000423669 0)
(-0.0162502 -0.000544484 0)
(-0.0157983 -0.000662969 0)
(-0.0152592 -0.000778497 0)
(-0.0146352 -0.000890387 0)
(-0.0139295 -0.000997867 0)
(-0.0131458 -0.00110002 0)
(-0.0122887 -0.00119569 0)
(-0.0113638 -0.00128339 0)
(-0.0103778 -0.00136113 0)
(-0.0093394 -0.00142623 0)
(-0.00825937 -0.00147517 0)
(-0.00715135 -0.00150333 0)
(-0.00603247 -0.00150497 0)
(-0.00492402 -0.00147316 0)
(-0.0038519 -0.00140015 0)
(-0.00284664 -0.00127806 0)
(-0.00194278 -0.00110052 0)
(-0.00117624 -0.000865686 0)
(-0.000579716 -0.000581478 0)
(-0.000183433 -0.000275078 0)
(-1.96021e-05 -1.94434e-05 0)
(-4.3239e-05 0.000142122 0)
(-0.000300802 0.000636682 0)
(-0.000862205 0.00117014 0)
(-0.00166389 0.00165637 0)
(-0.00266274 0.00205889 0)
(-0.00382021 0.00236578 0)
(-0.00509498 0.0025792 0)
(-0.00644736 0.00270862 0)
(-0.00784197 0.00276647 0)
(-0.00924848 0.00276543 0)
(-0.0106416 0.0027171 0)
(-0.0120007 0.00263133 0)
(-0.0133092 0.00251609 0)
(-0.0145538 0.00237759 0)
(-0.0157236 0.00222055 0)
(-0.0168102 0.00204851 0)
(-0.0178062 0.00186413 0)
(-0.0187058 0.00166945 0)
(-0.0195041 0.00146609 0)
(-0.0201969 0.00125541 0)
(-0.0207808 0.00103862 0)
(-0.0212528 0.000816804 0)
(-0.0216107 0.00059102 0)
(-0.0218528 0.000362293 0)
(-0.0219778 0.000131639 0)
(-0.021985 -9.99256e-05 0)
(-0.0218742 -0.000331376 0)
(-0.0216458 -0.000561676 0)
(-0.0213006 -0.000789771 0)
(-0.0208402 -0.00101458 0)
(-0.0202664 -0.00123498 0)
(-0.019582 -0.00144977 0)
(-0.01879 -0.00165765 0)
(-0.0178947 -0.00185714 0)
(-0.0169007 -0.00204645 0)
(-0.015814 -0.00222339 0)
(-0.0146418 -0.00238512 0)
(-0.0133929 -0.00252792 0)
(-0.0120783 -0.00264688 0)
(-0.0107115 -0.00273563 0)
(-0.00930951 -0.00278602 0)
(-0.00789348 -0.0027881 0)
(-0.00648911 -0.00273022 0)
(-0.00512722 -0.00259968 0)
(-0.00384363 -0.00238417 0)
(-0.00267845 -0.00207435 0)
(-0.00167328 -0.00166834 0)
(-0.000866843 -0.00117832 0)
(-0.000302355 -0.000641099 0)
(-4.34447e-05 -0.000143158 0)
(-6.18343e-05 0.000323843 0)
(-0.000400141 0.00113173 0)
(-0.00110908 0.00193938 0)
(-0.00209455 0.00265961 0)
(-0.00329938 0.00325263 0)
(-0.00467844 0.00370535 0)
(-0.00618537 0.00402138 0)
(-0.00777622 0.00421377 0)
(-0.00941193 0.0042997 0)
(-0.0110589 0.00429707 0)
(-0.0126887 0.00422251 0)
(-0.0142782 0.0040904 0)
(-0.0158084 0.00391258 0)
(-0.0172638 0.00369837 0)
(-0.018632 0.00345498 0)
(-0.0199028 0.00318791 0)
(-0.0210678 0.00290132 0)
(-0.0221201 0.00259845 0)
(-0.0230537 0.00228191 0)
(-0.023864 0.00195387 0)
(-0.0245467 0.00161624 0)
(-0.0250985 0.00127077 0)
(-0.0255168 0.000919119 0)
(-0.0257995 0.000562899 0)
(-0.0259453 0.000203704 0)
(-0.0259532 -0.000156877 0)
(-0.0258231 -0.000517247 0)
(-0.0255554 -0.000875789 0)
(-0.0251511 -0.00123085 0)
(-0.024612 -0.00158075 0)
(-0.0239403 -0.0019237 0)
(-0.0231393 -0.00225782 0)
(-0.0222125 -0.00258104 0)
(-0.0211649 -0.00289099 0)
(-0.0200022 -0.00318485 0)
(-0.0187312 -0.00345915 0)
(-0.0173604 -0.00370944 0)
(-0.0159002 -0.00392999 0)
(-0.0143632 -0.00411329 0)
(-0.0127652 -0.00424977 0)
(-0.0111257 -0.00432736 0)
(-0.00946825 -0.00433153 0)
(-0.00782182 -0.00424556 0)
(-0.00622053 -0.00405155 0)
(-0.00470394 -0.00373247 0)
(-0.00331643 -0.00327551 0)
(-0.00210471 -0.00267741 0)
(-0.00111407 -0.00195169 0)
(-0.000401792 -0.00113859 0)
(-6.20494e-05 -0.000325724 0)
(-7.55652e-05 0.000552598 0)
(-0.000479279 0.00173785 0)
(-0.00131261 0.00286135 0)
(-0.0024552 0.00384231 0)
(-0.00383641 0.00464293 0)
(-0.0054042 0.00525226 0)
(-0.00710716 0.00567723 0)
(-0.0088975 0.00593542 0)
(-0.0107332 0.00604933 0)
(-0.0125782 0.00604239 0)
(-0.014402 0.00593657 0)
(-0.0161794 0.00575103 0)
(-0.0178897 0.00550166 0)
(-0.0195161 0.00520119 0)
(-0.0210449 0.00485953 0)
(-0.0224646 0.0044843 0)
(-0.0237661 0.00408139 0)
(-0.0249415 0.00365538 0)
(-0.0259844 0.00320999 0)
(-0.0268892 0.00274834 0)
(-0.0276515 0.00227315 0)
(-0.0282676 0.00178692 0)
(-0.0287345 0.00129201 0)
(-0.0290499 0.000790706 0)
(-0.0292123 0.000285248 0)
(-0.0292207 -0.000222125 0)
(-0.0290751 -0.000729167 0)
(-0.0287758 -0.00123361 0)
(-0.028324 -0.00173312 0)
(-0.0277215 -0.00222532 0)
(-0.0269711 -0.00270768 0)
(-0.026076 -0.00317754 0)
(-0.0250406 -0.00363194 0)
(-0.0238702 -0.00406749 0)
(-0.0225711 -0.00448021 0)
(-0.021151 -0.00486517 0)
(-0.0196194 -0.00521615 0)
(-0.0179878 -0.00552515 0)
(-0.01627 -0.00578188 0)
(-0.0144835 -0.0059733 0)
(-0.0126492 -0.00608319 0)
(-0.0107929 -0.00609218 0)
(-0.00894568 -0.0059782 0)
(-0.00714412 -0.00571783 0)
(-0.00543083 -0.00528876 0)
(-0.00385405 -0.00467374 0)
(-0.00246555 -0.00386631 0)
(-0.00131757 -0.002878 0)
(-0.000480841 -0.00174722 0)
(-7.57404e-05 -0.000555299 0)
(-8.55325e-05 0.000817661 0)
(-0.000541221 0.00243476 0)
(-0.00147744 0.00391176 0)
(-0.00275275 0.005178 0)
(-0.00428457 0.00620148 0)
(-0.00601401 0.00697627 0)
(-0.00788454 0.00751458 0)
(-0.00984466 0.00783975 0)
(-0.0118496 0.00798032 0)
(-0.0138612 0.00796574 0)
(-0.0158473 0.00782358 0)
(-0.0177812 0.007578 0)
(-0.019641 0.00724917 0)
(-0.0214088 0.00685336 0)
(-0.02307 0.00640333 0)
(-0.0246123 0.00590899 0)
(-0.0260258 0.00537805 0)
(-0.0273022 0.00481657 0)
(-0.0284344 0.00422948 0)
(-0.0294167 0.00362092 0)
(-0.030244 0.00299453 0)
(-0.0309126 0.00235363 0)
(-0.0314191 0.00170133 0)
(-0.0317613 0.00104065 0)
(-0.0319374 0.00037455 0)
(-0.0319464 -0.000294038 0)
(-0.0317883 -0.000962164 0)
(-0.0314633 -0.00162684 0)
(-0.0309729 -0.00228502 0)
(-0.0303189 -0.00293355 0)
(-0.0295042 -0.0035691 0)
(-0.0285324 -0.00418814 0)
(-0.0274081 -0.00478673 0)
(-0.026137 -0.00536041 0)
(-0.0247259 -0.00590387 0)
(-0.0231832 -0.00641063 0)
(-0.021519 -0.00687254 0)
(-0.0197454 -0.00727923 0)
(-0.0178776 -0.00761745 0)
(-0.0159338 -0.0078705 0)
(-0.0139364 -0.00801784 0)
(-0.0119126 -0.00803501 0)
(-0.00989526 -0.0078943 0)
(-0.0079231 -0.00756631 0)
(-0.00604153 -0.00702273 0)
(-0.00430255 -0.00624064 0)
(-0.00276307 -0.00520845 0)
(-0.00148223 -0.00393283 0)
(-0.000542614 -0.00244658 0)
(-8.56464e-05 -0.000821081 0)
(-9.28879e-05 0.00111069 0)
(-0.000590198 0.00320533 0)
(-0.00161186 0.00506935 0)
(-0.0029999 0.00664361 0)
(-0.00466165 0.00790429 0)
(-0.00653169 0.00885268 0)
(-0.00854847 0.00950805 0)
(-0.0106567 0.00990073 0)
(-0.012809 0.0100662 0)
(-0.0149651 0.0100403 0)
(-0.0170913 0.0098568 0)
(-0.0191598 0.00954498 0)
(-0.0211476 0.00912951 0)
(-0.023036 0.00863031 0)
(-0.0248096 0.00806314 0)
(-0.0264558 0.0074403 0)
(-0.0279641 0.00677141 0)
(-0.0293256 0.00606409 0)
(-0.0305331 0.00532455 0)
(-0.0315804 0.00455804 0)
(-0.0324625 0.00376915 0)
(-0.0331751 0.00296208 0)
(-0.033715 0.00214075 0)
(-0.0340797 0.00130896 0)
(-0.0342675 0.000470401 0)
(-0.0342772 -0.000371248 0)
(-0.0341088 -0.0012123 0)
(-0.0337627 -0.00204903 0)
(-0.0332402 -0.0028776 0)
(-0.0325432 -0.00369407 0)
(-0.0316749 -0.00449426 0)
(-0.0306388 -0.00527369 0)
(-0.0294399 -0.00602742 0)
(-0.0280841 -0.00674979 0)
(-0.0265784 -0.00743412 0)
(-0.0249318 -0.00807229 0)
(-0.0231547 -0.00865412 0)
(-0.02126 -0.00916672 0)
(-0.0192635 -0.00959376 0)
(-0.0171842 -0.00991477 0)
(-0.0150457 -0.0101047 0)
(-0.0128763 -0.0101336 0)
(-0.0107105 -0.00996798 0)
(-0.0085892 -0.00957175 0)
(-0.00656048 -0.00890979 0)
(-0.00468019 -0.0079523 0)
(-0.00301031 -0.00668079 0)
(-0.00161649 -0.00509491 0)
(-0.000591428 -0.00321951 0)
(-9.29403e-05 -0.00111471 0)
(-9.85991e-05 0.00142588 0)
(-0.000630374 0.00403677 0)
(-0.00172485 0.0063179 0)
(-0.00321105 0.00822155 0)
(-0.00498772 0.0097334 0)
(-0.00698349 0.0108636 0)
(-0.00913189 0.0116397 0)
(-0.0113739 0.0121005 0)
(-0.0136592 0.0122889 0)
(-0.0159455 0.0122483 0)
(-0.0181977 0.0120185 0)
(-0.0203867 0.0116345 0)
(-0.0224887 0.0111256 0)
(-0.0244844 0.0105156 0)
(-0.0263577 0.00982334 0)
(-0.0280956 0.00906358 0)
(-0.0296872 0.00824795 0)
(-0.0311235 0.00738569 0)
(-0.0323968 0.00648437 0)
(-0.0335011 0.00555037 0)
(-0.0344309 0.0045893 0)
(-0.035182 0.00360625 0)
(-0.0357512 0.002606 0)
(-0.0361357 0.00159312 0)
(-0.0363338 0.000572087 0)
(-0.0363445 -0.00045267 0)
(-0.0361676 -0.00147671 0)
(-0.0358035 -0.00249553 0)
(-0.0352534 -0.00350452 0)
(-0.0345195 -0.00449889 0)
(-0.0336047 -0.00547359 0)
(-0.0325129 -0.00642317 0)
(-0.0312489 -0.00734161 0)
(-0.0298189 -0.00822202 0)
(-0.0282302 -0.00905629 0)
(-0.0264918 -0.00983454 0)
(-0.0246146 -0.0105445 0)
(-0.0226121 -0.0111707 0)
(-0.0205004 -0.0116935 0)
(-0.0182994 -0.0120886 0)
(-0.0160336 -0.012326 0)
(-0.0137326 -0.0123704 0)
(-0.0114324 -0.0121816 0)
(-0.00917598 -0.0117165 0)
(-0.00701444 -0.0109322 0)
(-0.00500744 -0.00979095 0)
(-0.00322193 -0.00826589 0)
(-0.00172955 -0.00634813 0)
(-0.000631517 -0.0040533 0)
(-9.86032e-05 -0.00143041 0)
(-0.000103417 0.00175962 0)
(-0.000665373 0.00492067 0)
(-0.00182482 0.00764643 0)
(-0.00340002 0.00989992 0)
(-0.00528234 0.0116769 0)
(-0.0073949 0.0129973 0)
(-0.00966646 0.0138985 0)
(-0.0120341 0.0144281 0)
(-0.0144447 0.014638 0)
(-0.0168537 0.014579 0)
(-0.0192244 0.0142982 0)
(-0.0215265 0.0138362 0)
(-0.0237354 0.0132274 0)
(-0.025831 0.0124994 0)
(-0.027797 0.0116745 0)
(-0.0296197 0.0107699 0)
(-0.0312883 0.00979939 0)
(-0.0327933 0.00877384 0)
(-0.0341272 0.00770223 0)
(-0.0352835 0.00659213 0)
(-0.036257 0.00545018 0)
(-0.0370434 0.00428241 0)
(-0.0376393 0.00309444 0)
(-0.0380421 0.00189165 0)
(-0.03825 0.000679286 0)
(-0.038262 -0.00053746 0)
(-0.0380777 -0.00175339 0)
(-0.0376977 -0.00296323 0)
(-0.0371231 -0.00416158 0)
(-0.036356 -0.0053428 0)
(-0.0353992 -0.00650094 0)
(-0.0342568 -0.00762956 0)
(-0.0329335 -0.00872151 0)
(-0.0314355 -0.00976866 0)
(-0.0297702 -0.0107614 0)
(-0.027947 -0.011688 0)
(-0.0259768 -0.012534 0)
(-0.0238735 -0.0132812 0)
(-0.0216538 -0.0139066 0)
(-0.0193383 -0.0143818 0)
(-0.0169523 -0.0146717 0)
(-0.0145268 -0.0147351 0)
(-0.0120995 -0.0145247 0)
(-0.00971561 -0.0139898 0)
(-0.00742929 -0.0130788 0)
(-0.00530414 -0.011745 0)
(-0.00341194 -0.00995212 0)
(-0.00182988 -0.00768171 0)
(-0.000666546 -0.00493965 0)
(-0.000103393 -0.00176462 0)
(-0.000107902 0.00211008 0)
(-0.000698157 0.00585245 0)
(-0.00191897 0.0090489 0)
(-0.00357902 0.0116723 0)
(-0.00556304 0.0137285 0)
(-0.00778892 0.0152482 0)
(-0.0101807 0.016279 0)
(-0.0126716 0.0168788 0)
(-0.0152053 0.0171087 0)
(-0.0177351 0.0170282 0)
(-0.0202223 0.0166914 0)
(-0.0226355 0.0161457 0)
(-0.0249491 0.0154303 0)
(-0.0271423 0.0145773 0)
(-0.0291984 0.0136122 0)
(-0.0311035 0.012555 0)
(-0.0328464 0.0114216 0)
(-0.0344177 0.0102247 0)
(-0.0358097 0.00897466 0)
(-0.0370161 0.00768029 0)
(-0.0380315 0.00634929 0)
(-0.0388517 0.00498862 0)
(-0.0394733 0.00360475 0)
(-0.0398938 0.00220387 0)
(-0.0401114 0.000791989 0)
(-0.0401249 -0.000624962 0)
(-0.0399342 -0.00204104 0)
(-0.0395394 -0.00345021 0)
(-0.038942 -0.00484627 0)
(-0.0381436 -0.00622277 0)
(-0.0371473 -0.00757282 0)
(-0.0359568 -0.00888899 0)
(-0.0345769 -0.010163 0)
(-0.0330137 -0.0113854 0)
(-0.0312746 -0.0125449 0)
(-0.0293691 -0.0136281 0)
(-0.0273084 -0.0146181 0)
(-0.0251065 -0.0154939 0)
(-0.0227807 -0.0162289 0)
(-0.0203524 -0.0167903 0)
(-0.0178478 -0.0171377 0)
(-0.0152993 -0.0172235 0)
(-0.0127464 -0.016993 0)
(-0.010237 -0.0163868 0)
(-0.00782834 -0.0153443 0)
(-0.00558805 -0.0138086 0)
(-0.00359271 -0.0117333 0)
(-0.00192478 -0.00908987 0)
(-0.000699505 -0.00587417 0)
(-0.000107875 -0.00211559 0)
(-0.000112465 0.00247683 0)
(-0.000731056 0.00683079 0)
(-0.0020132 0.0105236 0)
(-0.00375832 0.0135369 0)
(-0.00584475 0.0158871 0)
(-0.00818528 0.0176156 0)
(-0.0106992 0.0187813 0)
(-0.0133157 0.0194529 0)
(-0.0159752 0.0197016 0)
(-0.0186283 0.0195962 0)
(-0.0212346 0.0191987 0)
(-0.0237611 0.0185631 0)
(-0.0261812 0.0177343 0)
(-0.0284736 0.0167489 0)
(-0.0306209 0.0156358 0)
(-0.0326092 0.0144181 0)
(-0.0344269 0.0131137 0)
(-0.0360647 0.0117373 0)
(-0.0375149 0.0103007 0)
(-0.0387712 0.00881397 0)
(-0.0398284 0.00728588 0)
(-0.0406824 0.00572432 0)
(-0.0413297 0.00413662 0)
(-0.041768 0.00252974 0)
(-0.0419955 0.000910423 0)
(-0.042011 -0.000714669 0)
(-0.0418143 -0.00233888 0)
(-0.0414055 -0.00395545 0)
(-0.0407859 -0.0055574 0)
(-0.0399571 -0.00713746 0)
(-0.0389219 -0.00868783 0)
(-0.0376839 -0.0102001 0)
(-0.0362477 -0.0116647 0)
(-0.0346194 -0.013071 0)
(-0.0328063 -0.0144061 0)
(-0.0308178 -0.0156544 0)
(-0.0286654 -0.0167967 0)
(-0.0263633 -0.017809 0)
(-0.0239293 -0.0186609 0)
(-0.0213855 -0.0193149 0)
(-0.0187592 -0.019725 0)
(-0.0160846 -0.0198366 0)
(-0.013403 -0.0195871 0)
(-0.0107651 -0.018908 0)
(-0.00823159 -0.0177284 0)
(-0.00587427 -0.015981 0)
(-0.0037746 -0.0136083 0)
(-0.0020202 -0.0105712 0)
(-0.000732739 -0.00685574 0)
(-0.000112459 -0.00248295 0)
(-0.000117397 0.00286049 0)
(-0.000765862 0.00785697 0)
(-0.0021122 0.0120724 0)
(-0.00394625 0.0154965 0)
(-0.0061398 0.0181559 0)
(-0.00860045 0.0201033 0)
(-0.0112426 0.0214096 0)
(-0.0139911 0.0221549 0)
(-0.0167829 0.0224215 0)
(-0.0195658 0.0222877 0)
(-0.0222972 0.0218244 0)
(-0.0249427 0.0210925 0)
(-0.0274745 0.020143 0)
(-0.0298705 0.0190172 0)
(-0.0321129 0.0177479 0)
(-0.0341875 0.0163611 0)
(-0.0360827 0.0148772 0)
(-0.0377892 0.0133128 0)
(-0.0392993 0.0116813 0)
(-0.040607 0.00999388 0)
(-0.0417071 0.00826051 0)
(-0.0425957 0.00648999 0)
(-0.0432695 0.00469047 0)
(-0.0437262 0.00286965 0)
(-0.0439641 0.001035 0)
(-0.043982 -0.000806165 0)
(-0.0437796 -0.00264651 0)
(-0.0433571 -0.00447859 0)
(-0.0427154 -0.0062947 0)
(-0.041856 -0.00808675 0)
(-0.0407815 -0.00984609 0)
(-0.0394952 -0.0115632 0)
(-0.0380016 -0.0132276 0)
(-0.0363063 -0.0148269 0)
(-0.0344168 -0.0163466 0)
(-0.0323422 -0.0177692 0)
(-0.0300941 -0.0190728 0)
(-0.0276871 -0.0202301 0)
(-0.0251395 -0.0212069 0)
(-0.0224741 -0.0219605 0)
(-0.0197197 -0.0224388 0)
(-0.0169118 -0.0225799 0)
(-0.0140943 -0.0223125 0)
(-0.0113209 -0.0215584 0)
(-0.00865574 -0.0202358 0)
(-0.00617531 -0.018266 0)
(-0.00396605 -0.0155801 0)
(-0.00212088 -0.0121279 0)
(-0.000768052 -0.00788587 0)
(-0.00011744 -0.00286742 0)
(-0.000122911 0.00326247 0)
(-0.000803944 0.00893435 0)
(-0.00221968 0.0137001 0)
(-0.00414952 0.017557 0)
(-0.00645827 0.0205418 0)
(-0.00904802 0.0227191 0)
(-0.0118279 0.0241721 0)
(-0.0147183 0.0249933 0)
(-0.0176522 0.0252765 0)
(-0.0205744 0.0251107 0)
(-0.02344 0.0245758 0)
(-0.0262127 0.0237406 0)
(-0.0288637 0.0226623 0)
(-0.03137 0.0213875 0)
(-0.0337134 0.019953 0)
(-0.0358793 0.0183879 0)
(-0.0378562 0.0167155 0)
(-0.0396349 0.014954 0)
(-0.0412079 0.0131186 0)
(-0.0425692 0.0112218 0)
(-0.0437142 0.00927462 0)
(-0.0446389 0.00728678 0)
(-0.0453404 0.00526721 0)
(-0.0458165 0.00322434 0)
(-0.0460654 0.00116626 0)
(-0.0460863 -0.000899086 0)
(-0.0458785 -0.00296377 0)
(-0.0454422 -0.0050197 0)
(-0.0447781 -0.00705851 0)
(-0.0438874 -0.00907135 0)
(-0.0427724 -0.0110487 0)
(-0.0414361 -0.0129801 0)
(-0.0398826 -0.0148537 0)
(-0.0381174 -0.0166559 0)
(-0.0361474 -0.0183703 0)
(-0.0339819 -0.0199772 0)
(-0.0316324 -0.0214519 0)
(-0.0291137 -0.0227637 0)
(-0.0264445 -0.0238741 0)
(-0.0236488 -0.0247349 0)
(-0.0207565 -0.0252876 0)
(-0.0178052 -0.0254622 0)
(-0.0148413 -0.0251782 0)
(-0.0119217 -0.0243468 0)
(-0.00911462 -0.0228747 0)
(-0.00650139 -0.0206711 0)
(-0.00417386 -0.0176552 0)
(-0.00223057 -0.0137652 0)
(-0.000806826 -0.00896816 0)
(-0.000123028 -0.00327051 0)
(-0.000129159 0.00368481 0)
(-0.000846371 0.0100679 0)
(-0.00233862 0.0154139 0)
(-0.0043736 0.0197272 0)
(-0.00680846 0.0230549 0)
(-0.00953928 0.0254738 0)
(-0.0124696 0.0270801 0)
(-0.0155145 0.0279793 0)
(-0.018603 0.0282778 0)
(-0.0216766 0.0280757 0)
(-0.0246876 0.0274629 0)
(-0.027598 0.0265164 0)
(-0.0303776 0.0253005 0)
(-0.0330025 0.023867 0)
(-0.035454 0.0222573 0)
(-0.0377175 0.020504 0)
(-0.0397813 0.0186329 0)
(-0.0416366 0.0166646 0)
(-0.043276 0.0146157 0)
(-0.0446939 0.0125002 0)
(-0.045886 0.0103302 0)
(-0.0468488 0.00811627 0)
(-0.0475795 0.0058681 0)
(-0.048076 0.00359474 0)
(-0.0483369 0.00130486 0)
(-0.0483612 -0.000993068 0)
(-0.0481483 -0.00329058 0)
(-0.0476981 -0.00557905 0)
(-0.047011 -0.0078495 0)
(-0.0460881 -0.0100924 0)
(-0.0449312 -0.0122974 0)
(-0.0435427 -0.0144531 0)
(-0.0419264 -0.0165464 0)
(-0.0400873 -0.0185621 0)
(-0.0380321 -0.0204822 0)
(-0.0357696 -0.0222844 0)
(-0.0333114 -0.0239412 0)
(-0.0306725 -0.0254181 0)
(-0.0278721 -0.0266719 0)
(-0.0249352 -0.0276487 0)
(-0.0218931 -0.0282826 0)
(-0.0187855 -0.0284953 0)
(-0.0156618 -0.0281963 0)
(-0.0125823 -0.0272853 0)
(-0.00961987 -0.0256569 0)
(-0.00686106 -0.0232073 0)
(-0.00440364 -0.019843 0)
(-0.0023523 -0.0154908 0)
(-0.000850145 -0.0101079 0)
(-0.000129377 -0.00369433 0)
(-0.000136263 0.00413001 0)
(-0.00089402 0.011264 0)
(-0.00247149 0.017223 0)
(-0.00462314 0.0220185 0)
(-0.0071975 0.025708 0)
(-0.010084 0.0283811 0)
(-0.0131798 0.0301475 0)
(-0.0163946 0.0311269 0)
(-0.0196527 0.0314388 0)
(-0.0228918 0.0311955 0)
(-0.0260614 0.0304974 0)
(-0.0291215 0.0294307 0)
(-0.0320404 0.028067 0)
(-0.0347933 0.026464 0)
(-0.0373611 0.0246681 0)
(-0.039729 0.0227154 0)
(-0.0418856 0.0206347 0)
(-0.0438221 0.0184487 0)
(-0.0455319 0.016176 0)
(-0.0470096 0.0138319 0)
(-0.0482514 0.0114295 0)
(-0.0492541 0.00898024 0)
(-0.0500155 0.00649449 0)
(-0.0505337 0.00398186 0)
(-0.0508075 0.0014515 0)
(-0.0508358 -0.00108771 0)
(-0.050618 -0.00362689 0)
(-0.0501538 -0.00615696 0)
(-0.0494434 -0.00866845 0)
(-0.0484874 -0.0111512 0)
(-0.0472869 -0.0135942 0)
(-0.045844 -0.0159849 0)
(-0.0441617 -0.0183092 0)
(-0.0422446 -0.0205503 0)
(-0.0400987 -0.0226881 0)
(-0.0377326 -0.024698 0)
(-0.0351577 -0.0265492 0)
(-0.032389 -0.0282032 0)
(-0.0294463 -0.0296116 0)
(-0.0263555 -0.0307142 0)
(-0.0231497 -0.0314375 0)
(-0.0198708 -0.0316938 0)
(-0.0165713 -0.0313817 0)
(-0.0133156 -0.0303889 0)
(-0.0101817 -0.0285968 0)
(-0.00726171 -0.025888 0)
(-0.00466019 -0.0221556 0)
(-0.00248863 -0.0173144 0)
(-0.00089891 -0.0113117 0)
(-0.000136611 -0.00414151 0)
(-0.000144328 0.00460097 0)
(-0.000947673 0.0125301 0)
(-0.00262054 0.0191385 0)
(-0.00490236 0.0244444 0)
(-0.0076319 0.0285164 0)
(-0.0106911 0.0314571 0)
(-0.0139701 0.0333909 0)
(-0.0173724 0.0344524 0)
(-0.020817 0.0347752 0)
(-0.0242376 0.0344847 0)
(-0.0275807 0.0336929 0)
(-0.0308037 0.0324956 0)
(-0.0338736 0.0309724 0)
(-0.0367646 0.0291878 0)
(-0.0394574 0.0271931 0)
(-0.0419369 0.0250286 0)
(-0.0441922 0.0227262 0)
(-0.0462148 0.0203109 0)
(-0.0479987 0.0178032 0)
(-0.0495392 0.0152198 0)
(-0.0508331 0.0125748 0)
(-0.0518777 0.00988045 0)
(-0.0526713 0.00714777 0)
(-0.0532123 0.00438677 0)
(-0.0534998 0.00160694 0)
(-0.0535328 -0.00118254 0)
(-0.0533105 -0.00397252 0)
(-0.0528325 -0.00675362 0)
(-0.0520985 -0.00951598 0)
(-0.0511086 -0.012249 0)
(-0.0498633 -0.0149408 0)
(-0.0483639 -0.0175782 0)
(-0.0466127 -0.0201458 0)
(-0.0446135 -0.0226252 0)
(-0.0423716 -0.0249942 0)
(-0.039895 -0.0272256 0)
(-0.0371947 -0.029285 0)
(-0.0342859 -0.0311297 0)
(-0.0311888 -0.0327056 0)
(-0.0279302 -0.0339455 0)
(-0.0245451 -0.0347676 0)
(-0.0210778 -0.035074 0)
(-0.0175844 -0.0347517 0)
(-0.0141338 -0.0336752 0)
(-0.0108094 -0.0317118 0)
(-0.00771021 -0.0287294 0)
(-0.00494794 -0.0246073 0)
(-0.00264192 -0.0192476 0)
(-0.000953934 -0.0125875 0)
(-0.000144839 -0.00461506 0)
(-0.00015346 0.005101 0)
(-0.0010081 0.0138748 0)
(-0.00278797 0.021173 0)
(-0.00521539 0.0270206 0)
(-0.00811804 0.0314975 0)
(-0.0113694 0.0347203 0)
(-0.0148516 0.0368291 0)
(-0.0184611 0.037974 0)
(-0.0221112 0.0383043 0)
(-0.0257311 0.0379595 0)
(-0.0292636 0.0370638 0)
(-0.0326639 0.0357239 0)
(-0.0358971 0.0340281 0)
(-0.0389369 0.032048 0)
(-0.0417633 0.0298405 0)
(-0.0443617 0.0274503 0)
(-0.0467214 0.0249127 0)
(-0.0488346 0.0222554 0)
(-0.0506961 0.0195005 0)
(-0.0523021 0.0166664 0)
(-0.0536501 0.013768 0)
(-0.0547381 0.0108185 0)
(-0.0555651 0.00782917 0)
(-0.05613 0.00481044 0)
(-0.056432 0.00177196 0)
(-0.0564704 -0.00127697 0)
(-0.0562443 -0.0043271 0)
(-0.0557529 -0.00736893 0)
(-0.0549955 -0.0103924 0)
(-0.0539715 -0.0133865 0)
(-0.0526806 -0.0163389 0)
(-0.0511232 -0.0192355 0)
(-0.0493006 -0.0220596 0)
(-0.0472156 -0.0247915 0)
(-0.0448726 -0.0274067 0)
(-0.0422787 -0.029875 0)
(-0.0394444 -0.0321584 0)
(-0.0363848 -0.0342093 0)
(-0.0331205 -0.0359674 0)
(-0.0296792 -0.0373581 0)
(-0.0260977 -0.0382902 0)
(-0.0224232 -0.0386547 0)
(-0.0187156 -0.038326 0)
(-0.0150489 -0.0371643 0)
(-0.0115126 -0.0350215 0)
(-0.0082134 -0.0317502 0)
(-0.00527133 -0.0272146 0)
(-0.0028145 -0.0213036 0)
(-0.00101603 -0.0139441 0)
(-0.00015417 -0.00511842 0)
(-0.000163772 0.00563376 0)
(-0.00107612 0.0153078 0)
(-0.00297612 0.0233408 0)
(-0.00556662 0.0297647 0)
(-0.00866266 0.0346712 0)
(-0.012128 0.0381917 0)
(-0.0158359 0.040483 0)
(-0.0196746 0.0417122 0)
(-0.0235512 0.0420454 0)
(-0.0273895 0.0416373 0)
(-0.0311287 0.0406259 0)
(-0.0347213 0.0391293 0)
(-0.0381308 0.0372456 0)
(-0.04133 0.0350542 0)
(-0.0442987 0.032618 0)
(-0.0470227 0.0299868 0)
(-0.049492 0.0271992 0)
(-0.0516997 0.0242858 0)
(-0.0536417 0.0212708 0)
(-0.0553152 0.0181738 0)
(-0.0567186 0.0150108 0)
(-0.0578512 0.0117955 0)
(-0.0587124 0.00853969 0)
(-0.0593019 0.00525376 0)
(-0.0596193 0.00194738 0)
(-0.0596639 -0.00137024 0)
(-0.0594348 -0.00468998 0)
(-0.0589308 -0.00800239 0)
(-0.0581507 -0.0112974 0)
(-0.057093 -0.0145639 0)
(-0.0557566 -0.0177891 0)
(-0.0541405 -0.0209582 0)
(-0.052245 -0.0240534 0)
(-0.0500713 -0.0270533 0)
(-0.0476227 -0.0299312 0)
(-0.0449053 -0.0326538 0)
(-0.0419288 -0.035179 0)
(-0.0387077 -0.0374538 0)
(-0.0352628 -0.0394114 0)
(-0.031623 -0.0409686 0)
(-0.0278268 -0.0420239 0)
(-0.0239245 -0.0424565 0)
(-0.0199802 -0.0421264 0)
(-0.0160736 -0.0408786 0)
(-0.0123014 -0.0385484 0)
(-0.00877868 -0.0349716 0)
(-0.00563513 -0.0299964 0)
(-0.00300891 -0.0234978 0)
(-0.00108609 -0.0153919 0)
(-0.000164725 -0.00565542 0)
(-0.000175401 0.00620339 0)
(-0.0011527 0.01684 0)
(-0.00318766 0.0256581 0)
(-0.005961 0.0326967 0)
(-0.00927333 0.0380598 0)
(-0.0129774 0.0418947 0)
(-0.0169358 0.044376 0)
(-0.0210282 0.0456896 0)
(-0.0251541 0.0460195 0)
(-0.0292317 0.0455373 0)
(-0.033196 0.0443959 0)
(-0.0369966 0.0427262 0)
(-0.0405953 0.0406369 0)
(-0.0439643 0.038216 0)
(-0.0470834 0.0355333 0)
(-0.0499391 0.0326437 0)
(-0.0525223 0.0295898 0)
(-0.0548275 0.0264052 0)
(-0.0568517 0.023116 0)
(-0.0585937 0.0197433 0)
(-0.0600532 0.016304 0)
(-0.0612306 0.0128123 0)
(-0.0621264 0.00927995 0)
(-0.062741 0.00571738 0)
(-0.0630743 0.00213397 0)
(-0.0631261 -0.00146144 0)
(-0.0628951 -0.00506011 0)
(-0.06238 -0.00865295 0)
(-0.0615787 -0.0122301 0)
(-0.0604887 -0.0157806 0)
(-0.0591078 -0.0192913 0)
(-0.0574336 -0.022747 0)
(-0.0554647 -0.0261289 0)
(-0.0532007 -0.0294138 0)
(-0.0506433 -0.0325727 0)
(-0.047797 -0.035569 0)
(-0.0446705 -0.0383562 0)
(-0.0412775 -0.0408754 0)
(-0.0376387 -0.0430523 0)
(-0.0337839 -0.0447945 0)
(-0.0297534 -0.0459891 0)
(-0.0256009 -0.0465017 0)
(-0.0213952 -0.0461773 0)
(-0.0172224 -0.0448435 0)
(-0.0131872 -0.0423177 0)
(-0.00941443 -0.0384175 0)
(-0.0060448 -0.0329739 0)
(-0.00322807 -0.0258472 0)
(-0.00116515 -0.0169424 0)
(-0.00017665 -0.0062304 0)
(-0.00018851 0.00681452 0)
(-0.00123895 0.0184838 0)
(-0.00342574 0.0281434 0)
(-0.00640438 0.0358393 0)
(-0.00995891 0.0416885 0)
(-0.0139293 0.0458556 0)
(-0.0181664 0.0485343 0)
(-0.0225394 0.0499309 0)
(-0.0269396 0.0502493 0)
(-0.0312788 0.0496795 0)
(-0.0354874 0.048391 0)
(-0.039512 0.0465289 0)
(-0.0433129 0.0442135 0)
(-0.0468615 0.0415424 0)
(-0.0501384 0.038593 0)
(-0.0531306 0.0354257 0)
(-0.0558307 0.0320876 0)
(-0.0582349 0.0286153 0)
(-0.0603419 0.025037 0)
(-0.0621522 0.0213753 0)
(-0.0636673 0.0176478 0)
(-0.064889 0.0138687 0)
(-0.0658189 0.0100501 0)
(-0.0664585 0.0062017 0)
(-0.0668083 0.00233249 0)
(-0.0668681 -0.00154941 0)
(-0.0666369 -0.00543597 0)
(-0.0661127 -0.00931881 0)
(-0.0652925 -0.0131886 0)
(-0.0641729 -0.0170347 0)
(-0.0627499 -0.0208442 0)
(-0.0610196 -0.0246013 0)
(-0.0589785 -0.0282864 0)
(-0.0566242 -0.0318747 0)
(-0.0539562 -0.0353348 0)
(-0.0509773 -0.0386266 0)
(-0.0476941 -0.0416987 0)
(-0.0441194 -0.0444858 0)
(-0.0402735 -0.0469052 0)
(-0.0361868 -0.0488542 0)
(-0.0319015 -0.0502073 0)
(-0.0274747 -0.0508151 0)
(-0.0229805 -0.0505054 0)
(-0.018512 -0.0490872 0)
(-0.0141834 -0.0463578 0)
(-0.0101305 -0.042115 0)
(-0.00650685 -0.0361715 0)
(-0.00347548 -0.0283716 0)
(-0.00125445 -0.0186087 0)
(-0.000190123 -0.00684822 0)
(-0.000203304 0.00747242 0)
(-0.00133627 0.0202532 0)
(-0.00369421 0.0308175 0)
(-0.00690381 0.039218 0)
(-0.01073 0.0455858 0)
(-0.014998 0.0501037 0)
(-0.0195451 0.0529866 0)
(-0.0242286 0.0544633 0)
(-0.0289303 0.0547593 0)
(-0.033555 0.0540855 0)
(-0.038028 0.0526293 0)
(-0.0422928 0.0505519 0)
(-0.0463082 0.0479866 0)
(-0.0500455 0.0450416 0)
(-0.0534859 0.0418025 0)
(-0.0566181 0.0383361 0)
(-0.0594364 0.0346941 0)
(-0.0619393 0.0309164 0)
(-0.0641278 0.0270333 0)
(-0.0660047 0.0230687 0)
(-0.0675733 0.0190408 0)
(-0.0688374 0.0149639 0)
(-0.0698002 0.0108495 0)
(-0.0704641 0.00670675 0)
(-0.0708306 0.00254365 0)
(-0.0708997 -0.00163273 0)
(-0.0706702 -0.00581549 0)
(-0.0701397 -0.0099973 0)
(-0.0693043 -0.0141698 0)
(-0.068159 -0.0183231 0)
(-0.0666982 -0.0224445 0)
(-0.0649157 -0.0265184 0)
(-0.0628058 -0.0305243 0)
(-0.0603633 -0.034436 0)
(-0.0575851 -0.0382196 0)
(-0.0544714 -0.0418312 0)
(-0.0510266 -0.0452142 0)
(-0.0472617 -0.0482961 0)
(-0.0431961 -0.0509851 0)
(-0.0388604 -0.0531668 0)
(-0.0342988 -0.0547016 0)
(-0.0295718 -0.0554233 0)
(-0.0247593 -0.0551405 0)
(-0.0199626 -0.0536411 0)
(-0.0153062 -0.0507008 0)
(-0.0109391 -0.0460952 0)
(-0.00702921 -0.0396169 0)
(-0.00375544 -0.0310934 0)
(-0.00135553 -0.0204058 0)
(-0.000205369 -0.00751447 0)
(-0.000220041 0.00818314 0)
(-0.0014464 0.0221646 0)
(-0.00399781 0.0337044 0)
(-0.00746794 0.0428623 0)
(-0.0115996 0.049784 0)
(-0.0162009 0.0546723 0)
(-0.0210931 0.0577654 0)
(-0.0261201 0.0593166 0)
(-0.031153 0.0595761 0)
(-0.0360885 0.0587776 0)
(-0.0408467 0.0571291 0)
(-0.0453677 0.0548093 0)