/*--------------------------------*- C++ -*----------------------------------*\
  =========                 |
  \\      /  F ield         | OpenFOAM: The Open Source CFD Toolbox
   \\    /   O peration     | Website:  https://openfoam.org
    \\  /    A nd           | Version:  7
     \\/     M anipulation  |
\*---------------------------------------------------------------------------*/
FoamFile
{
    version     2.0;
    format      ascii;
    class       surfaceScalarField;
    location    "0.063";
    object      phi;
}
// * * * * * * * * * * * * * * * * * * * * * * * * * * * * * * * * * * * * * //

dimensions      [0 3 -1 0 0 0 0];

internalField   nonuniform List<scalar> 
4900
(
5.45464e-06
-5.45463e-06
9.95313e-06
-4.4985e-06
1.26939e-05
-2.74079e-06
1.44122e-05
-1.71829e-06
1.55285e-05
-1.11627e-06
1.62817e-05
-7.53224e-07
1.68129e-05
-5.31153e-07
1.72035e-05
-3.90625e-07
1.75008e-05
-2.97323e-07
1.77331e-05
-2.32307e-07
1.79182e-05
-1.85049e-07
1.80677e-05
-1.49484e-07
1.81896e-05
-1.21965e-07
1.82898e-05
-1.00191e-07
1.83725e-05
-8.26498e-08
1.84408e-05
-6.83025e-08
1.84972e-05
-5.64099e-08
1.85436e-05
-4.64282e-08
1.85815e-05
-3.79454e-08
1.86122e-05
-3.06406e-08
1.86364e-05
-2.42569e-08
1.8655e-05
-1.8583e-08
1.86685e-05
-1.34399e-08
1.86771e-05
-8.67159e-09
1.86813e-05
-4.13748e-09
1.8681e-05
2.96854e-10
1.86762e-05
4.75385e-09
1.86669e-05
9.3687e-09
1.86526e-05
1.42757e-08
1.8633e-05
1.96253e-08
1.86074e-05
2.55885e-08
1.8575e-05
3.23674e-08
1.85348e-05
4.02088e-08
1.84854e-05
4.94226e-08
1.8425e-05
6.04103e-08
1.83513e-05
7.37054e-08
1.82612e-05
9.00377e-08
1.81508e-05
1.10436e-07
1.80144e-05
1.364e-07
1.78442e-05
1.70204e-07
1.76287e-05
2.1545e-07
1.73506e-05
2.78128e-07
1.69819e-05
3.68704e-07
1.64756e-05
5.06256e-07
1.57495e-05
7.26157e-07
1.46575e-05
1.09195e-06
1.29451e-05
1.71238e-06
1.0162e-05
2.78318e-06
5.55724e-06
4.60473e-06
5.55724e-06
-1.19293e-07
-5.33534e-06
1.83183e-06
-6.44963e-06
4.41345e-06
-5.32241e-06
6.72978e-06
-4.03462e-06
8.61046e-06
-2.99695e-06
1.0094e-05
-2.23671e-06
1.12599e-05
-1.69712e-06
1.21824e-05
-1.31315e-06
1.29199e-05
-1.03484e-06
1.3516e-05
-8.28355e-07
1.40024e-05
-6.71496e-07
1.44027e-05
-5.49701e-07
1.4734e-05
-4.5329e-07
1.50095e-05
-3.75688e-07
1.52391e-05
-3.12313e-07
1.54307e-05
-2.59891e-07
1.55903e-05
-2.16017e-07
1.57228e-05
-1.78879e-07
1.58319e-05
-1.4708e-07
1.59208e-05
-1.19513e-07
1.59918e-05
-9.52787e-08
1.60469e-05
-7.36309e-08
1.60874e-05
-5.39298e-08
1.61143e-05
-3.56121e-08
1.61283e-05
-1.81658e-08
1.61297e-05
-1.11059e-09
1.61185e-05
1.60266e-08
1.60941e-05
3.37193e-08
1.60559e-05
5.24703e-08
1.60027e-05
7.28283e-08
1.59329e-05
9.54159e-08
1.58443e-05
1.20963e-07
1.57341e-05
1.50351e-07
1.55989e-05
1.84677e-07
1.5434e-05
2.25342e-07
1.52335e-05
2.74175e-07
1.49899e-05
3.33632e-07
1.46933e-05
4.0708e-07
1.43304e-05
4.99261e-07
1.38836e-05
6.17017e-07
1.33285e-05
7.70482e-07
1.26317e-05
9.75014e-07
1.17461e-05
1.25428e-06
1.06075e-05
1.64487e-06
9.13174e-06
2.2019e-06
7.2244e-06
2.99929e-06
4.8315e-06
4.10528e-06
2.12099e-06
5.49369e-06
1.07182e-08
6.715e-06
5.56796e-06
-1.08241e-06
-4.25293e-06
-7.53953e-07
-6.77808e-06
5.89885e-07
-6.66625e-06
2.30261e-06
-5.74734e-06
4.01449e-06
-4.70883e-06
5.56688e-06
-3.78911e-06
6.91255e-06
-3.04278e-06
8.05502e-06
-2.45562e-06
9.01683e-06
-1.99665e-06
9.82468e-06
-1.6362e-06
1.05036e-05
-1.35039e-06
1.1075e-05
-1.1211e-06
1.15567e-05
-9.34974e-07
1.19631e-05
-7.82161e-07
1.23062e-05
-6.55359e-07
1.25954e-05
-5.49082e-07
1.28385e-05
-4.59143e-07
1.30419e-05
-3.82286e-07
1.32107e-05
-3.15928e-07
1.33492e-05
-2.57981e-07
1.34606e-05
-2.06717e-07
1.35477e-05
-1.60673e-07
1.36123e-05
-1.18581e-07
1.3656e-05
-7.93105e-08
1.36797e-05
-4.18223e-08
1.36837e-05
-5.1343e-09
1.3668e-05
3.17215e-08
1.3632e-05
6.97211e-08
1.35746e-05
1.09895e-07
1.34941e-05
1.53366e-07
1.33881e-05
2.01395e-07
1.32536e-05
2.55448e-07
1.30867e-05
3.17276e-07
1.28823e-05
3.89018e-07
1.26343e-05
4.73357e-07
1.23348e-05
5.73723e-07
1.19738e-05
6.94587e-07
1.1539e-05
8.41877e-07
1.10147e-05
1.02358e-06
1.03811e-05
1.25058e-06
9.61379e-06
1.53783e-06
8.68297e-06
1.90584e-06
7.55512e-06
2.38213e-06
6.19836e-06
3.00163e-06
4.59798e-06
3.80227e-06
2.79166e-06
4.80561e-06
9.38103e-07
5.95884e-06
-5.706e-07
7.00239e-06
-1.03814e-06
7.18254e-06
4.52982e-06
-9.12974e-07
-3.33996e-06
-1.34125e-06
-6.34981e-06
-9.36111e-07
-7.07139e-06
2.25766e-08
-6.70603e-06
1.24104e-06
-5.9273e-06
2.51977e-06
-5.06784e-06
3.74598e-06
-4.26899e-06
4.86692e-06
-3.57656e-06
5.86473e-06
-2.99446e-06
6.73953e-06
-2.511e-06
7.49969e-06
-2.11055e-06
8.15668e-06
-1.77809e-06
8.72245e-06
-1.50075e-06
9.20828e-06
-1.26799e-06
9.62427e-06
-1.07135e-06
9.97924e-06
-9.04057e-07
1.02808e-05
-7.60689e-07
1.05353e-05
-6.36842e-07
1.07483e-05
-5.2891e-07
1.09242e-05
-4.33883e-07
1.10667e-05
-3.49215e-07
1.11788e-05
-2.727e-07
1.12626e-05
-2.02393e-07
1.13198e-05
-1.36531e-07
1.13514e-05
-7.34778e-08
1.1358e-05
-1.16687e-08
1.13393e-05
5.04406e-08
1.12946e-05
1.14416e-07
1.12226e-05
1.81906e-07
1.11212e-05
2.54691e-07
1.09879e-05
3.3476e-07
1.08189e-05
4.24392e-07
1.06099e-05
5.26259e-07
1.03554e-05
6.43572e-07
1.00485e-05
7.80253e-07
9.68103e-06
9.41173e-07
9.24316e-06
1.13246e-06
8.72316e-06
1.36189e-06
8.10738e-06
1.63935e-06
7.38053e-06
1.97743e-06
6.52657e-06
2.39179e-06
5.53119e-06
2.90121e-06
4.38717e-06
3.52614e-06
3.10506e-06
4.28374e-06
1.73242e-06
5.17491e-06
3.84072e-07
6.15396e-06
-7.24221e-07
7.06714e-06
-1.26556e-06
7.54373e-06
-9.15826e-07
6.83281e-06
3.61399e-06
-6.64664e-07
-2.67529e-06
-1.29681e-06
-5.71766e-06
-1.41716e-06
-6.95103e-06
-1.04089e-06
-7.0823e-06
-3.225e-07
-6.64569e-06
5.80466e-07
-5.9708e-06
1.54975e-06
-5.23827e-06
2.50942e-06
-4.53624e-06
3.41628e-06
-3.90131e-06
4.24888e-06
-3.34361e-06
4.99921e-06
-2.86087e-06
5.66688e-06
-2.44576e-06
6.25563e-06
-2.0895e-06
6.77111e-06
-1.78347e-06
7.21968e-06
-1.51991e-06
7.60767e-06
-1.29205e-06
7.94107e-06
-1.09409e-06
8.22528e-06
-9.21054e-07
8.46508e-06
-7.68709e-07
8.66458e-06
-6.33381e-07
8.82723e-06
-5.11861e-07
8.95583e-06
-4.01304e-07
9.05258e-06
-2.99139e-07
9.11904e-06
-2.02999e-07
9.15622e-06
-1.10654e-07
9.1645e-06
-1.99486e-08
9.14369e-06
7.12529e-08
9.09298e-06
1.65125e-07
9.01094e-06
2.63944e-07
8.89548e-06
3.70157e-07
8.74377e-06
4.86464e-07
8.55226e-06
6.15907e-07
8.31653e-06
7.61988e-07
8.03129e-06
9.28806e-07
7.69032e-06
1.12122e-06
7.28643e-06
1.34506e-06
6.81157e-06
1.60732e-06
6.25705e-06
1.9164e-06
5.61418e-06
2.28223e-06
4.87539e-06
2.71622e-06
4.0365e-06
3.23068e-06
3.10062e-06
3.83709e-06
2.08474e-06
4.54202e-06
1.02989e-06
5.3386e-06
1.47464e-08
6.19005e-06
-8.31413e-07
7.00012e-06
-1.32877e-06
7.56449e-06
-1.29266e-06
7.50763e-06
-6.8488e-07
6.22503e-06
2.92911e-06
-4.70627e-07
-2.20467e-06
-1.09912e-06
-5.08917e-06
-1.46684e-06
-6.58331e-06
-1.46719e-06
-7.08195e-06
-1.14595e-06
-6.96693e-06
-5.98114e-07
-6.51865e-06
8.26495e-08
-5.91903e-06
8.22466e-07
-5.27606e-06
1.56969e-06
-4.64853e-06
2.29125e-06
-4.06516e-06
2.96773e-06
-3.53735e-06
3.58906e-06
-3.0671e-06
4.15125e-06
-2.65169e-06
4.65404e-06
-2.28626e-06
5.09935e-06
-1.96522e-06
5.49026e-06
-1.68297e-06
5.83038e-06
-1.4342e-06
6.12339e-06
-1.21406e-06
6.37282e-06
-1.01814e-06
6.5819e-06
-8.42457e-07
6.75343e-06
-6.83392e-07
6.88976e-06
-5.3764e-07
6.99276e-06
-4.02138e-07
7.06377e-06
-2.74005e-07
7.1036e-06
-1.50484e-07
7.11254e-06
-2.88848e-08
7.09031e-06
9.34785e-08
7.03609e-06
2.19343e-07
6.94847e-06
3.51563e-07
6.82545e-06
4.93182e-07
6.66441e-06
6.47508e-07
6.46211e-06
8.18206e-07
6.2147e-06
1.00939e-06
5.91777e-06
1.22574e-06
5.56641e-06
1.47259e-06
5.1554e-06
1.75607e-06
4.6796e-06
2.08312e-06
4.13457e-06
2.46143e-06
3.51758e-06
2.89922e-06
2.82935e-06
3.40445e-06
2.07672e-06
3.98331e-06
1.27663e-06
4.63718e-06
4.61564e-07
5.35709e-06
-3.13927e-07
6.11409e-06
-9.67665e-07
6.84379e-06
-1.39083e-06
7.42328e-06
-1.46828e-06
7.64194e-06
-1.13559e-06
7.17495e-06
-4.9641e-07
5.58584e-06
2.4327e-06
-3.39633e-07
-1.86503e-06
-9.01164e-07
-4.52764e-06
-1.36242e-06
-6.12206e-06
-1.58202e-06
-6.86235e-06
-1.54153e-06
-7.00742e-06
-1.283e-06
-6.77718e-06
-8.67756e-07
-6.33427e-06
-3.54884e-07
-5.78893e-06
2.07347e-07
-5.21076e-06
7.83086e-07
-4.6409e-06
1.34751e-06
-4.10178e-06
1.88452e-06
-3.60411e-06
2.38442e-06
-3.15159e-06
2.84203e-06
-2.74387e-06
3.25523e-06
-2.37842e-06
3.62385e-06
-2.05159e-06
3.94894e-06
-1.75929e-06
4.23219e-06
-1.49731e-06
4.47561e-06
-1.26156e-06
4.68125e-06
-1.04809e-06
4.85102e-06
-8.53167e-07
4.98661e-06
-6.73229e-07
5.08937e-06
-5.04896e-07
5.16027e-06
-3.4491e-07
5.19989e-06
-1.90101e-07
5.20834e-06
-3.73374e-08
5.1853e-06
1.16524e-07
5.12995e-06
2.74691e-07
5.04102e-06
4.40492e-07
4.91676e-06
6.17442e-07
4.75497e-06
8.093e-07
4.55303e-06
1.02014e-06
4.30801e-06
1.25441e-06
4.01676e-06
1.51699e-06
3.67615e-06
1.81321e-06
3.28342e-06
2.1488e-06
2.83673e-06
2.5298e-06
2.336e-06
2.96216e-06
1.78415e-06
3.45107e-06
1.18885e-06
3.99975e-06
5.64978e-07
4.60718e-06
-6.23423e-08
5.2645e-06
-6.54448e-07
5.94919e-06
-1.15667e-06
6.61631e-06
-1.49928e-06
7.1864e-06
-1.60679e-06
7.53079e-06
-1.42296e-06
7.4581e-06
-9.59132e-07
6.71112e-06
-3.66405e-07
4.99312e-06
2.0663e-06
-2.5469e-07
-1.61034e-06
-7.40123e-07
-4.0422e-06
-1.21957e-06
-5.64261e-06
-1.55636e-06
-6.52556e-06
-1.7015e-06
-6.86228e-06
-1.66089e-06
-6.81779e-06
-1.46719e-06
-6.52797e-06
-1.16126e-06
-6.09486e-06
-7.82084e-07
-5.58994e-06
-3.62381e-07
-5.06061e-06
7.24568e-08
-4.53661e-06
5.03845e-07
-4.03549e-06
9.18859e-07
-3.5666e-06
1.30898e-06
-3.134e-06
1.66898e-06
-2.73842e-06
1.99597e-06
-2.37858e-06
2.28868e-06
-2.052e-06
2.54691e-06
-1.75554e-06
2.77111e-06
-1.48577e-06
2.96209e-06
-1.23907e-06
3.12078e-06
-1.01186e-06
3.24808e-06
-8.00536e-07
3.34478e-06
-6.01588e-07
3.4114e-06
-4.11534e-07
3.44822e-06
-2.26925e-07
3.4552e-06
-4.43152e-08
3.43195e-06
1.39777e-07
3.37774e-06
3.28903e-07
3.2915e-06
5.2673e-07
3.17186e-06
7.37083e-07
3.01718e-06
9.6398e-07
2.82565e-06
1.21167e-06
2.59542e-06
1.48464e-06
2.32483e-06
1.78759e-06
2.01266e-06
2.12537e-06
1.65864e-06
2.50282e-06
1.26405e-06
2.92439e-06
8.32619e-07
3.39359e-06
3.71673e-07
3.91202e-06
-1.0633e-07
4.47775e-06
-5.82057e-07
5.08291e-06
-1.02753e-06
5.70998e-06
-1.40499e-06
6.32665e-06
-1.66762e-06
6.87895e-06
-1.76435e-06
7.28313e-06
-1.65172e-06
7.41816e-06
-1.31635e-06
7.12273e-06
-8.08694e-07
6.20347e-06
-2.80978e-07
4.4654e-06
1.78532e-06
-1.99095e-07
-1.41125e-06
-6.17255e-07
-3.62404e-06
-1.08219e-06
-5.17767e-06
-1.47566e-06
-6.13209e-06
-1.73822e-06
-6.59972e-06
-1.85442e-06
-6.70159e-06
-1.83553e-06
-6.54686e-06
-1.70578e-06
-6.22461e-06
-1.49317e-06
-5.80256e-06
-1.22431e-06
-5.32947e-06
-9.22027e-07
-4.83889e-06
-6.04641e-07
-4.35288e-06
-2.86135e-07
-3.88511e-06
2.32501e-08
-3.44338e-06
3.16314e-07
-3.03148e-06
5.88217e-07
-2.65048e-06
8.3588e-07
-2.29966e-06
1.0575e-06
-1.97716e-06
1.25215e-06
-1.68042e-06
1.41948e-06
-1.4064e-06
1.55947e-06
-1.15185e-06
1.67227e-06
-9.13333e-07
1.75805e-06
-6.87367e-07
1.81691e-06
-4.70402e-07
1.84884e-06
-2.58854e-07
1.85363e-06
-4.90976e-08
1.83085e-06
1.62549e-07
1.77991e-06
3.79843e-07
1.70001e-06
6.06635e-07
1.5902e-06
8.46887e-07
1.4495e-06
1.10468e-06
1.27697e-06
1.3842e-06
1.0719e-06
1.6897e-06
8.34087e-07
2.0254e-06
5.64138e-07
2.39532e-06
2.63978e-07
2.80298e-06
-6.25483e-08
3.25091e-06
-4.08886e-07
3.73993e-06
-7.6482e-07
4.26795e-06
-1.11542e-06
4.82836e-06
-1.44008e-06
5.40757e-06
-1.71194e-06
5.98184e-06
-1.89844e-06
6.51315e-06
-1.96394e-06
6.94445e-06
-1.87599e-06
7.19517e-06
-1.61656e-06
7.15874e-06
-1.19923e-06
6.70539e-06
-6.90018e-07
5.69425e-06
-2.24305e-07
3.99969e-06
1.56101e-06
-1.6175e-07
-1.2495e-06
-5.25327e-07
-3.26046e-06
-9.64158e-07
-4.73884e-06
-1.38048e-06
-5.71577e-06
-1.71484e-06
-6.26536e-06
-1.94082e-06
-6.4756e-06
-2.0554e-06
-6.43228e-06
-2.06957e-06
-6.21044e-06
-2.00108e-06
-5.87105e-06
-1.86955e-06
-5.46099e-06
-1.69365e-06
-5.0148e-06
-1.48965e-06
-4.55688e-06
-1.27098e-06
-4.10378e-06
-1.04825e-06
-3.66611e-06
-8.29551e-07
-3.25018e-06
-6.20881e-07
-2.85915e-06
-4.26535e-07
-2.49401e-06
-2.49504e-07
-2.15419e-06
-9.18072e-08
-1.83811e-06
4.52398e-08
-1.54345e-06
1.60799e-07
-1.2674e-06
2.54336e-07
-1.00687e-06
3.25487e-07
-7.58519e-07
3.7396e-07
-5.18875e-07
3.99462e-07
-2.84356e-07
4.01653e-07
-5.1289e-08
3.80131e-07
1.84071e-07
3.3443e-07
4.25543e-07
2.64054e-07
6.77011e-07
1.68533e-07
9.42408e-07
4.75189e-08
1.22569e-06
-9.90724e-08
1.53079e-06
-2.7087e-07
1.8615e-06
-4.66787e-07
2.22132e-06
-6.84673e-07
2.61321e-06
-9.20886e-07
3.03919e-06
-1.16976e-06
3.49979e-06
-1.42298e-06
3.99315e-06
-1.66898e-06
4.51395e-06
-1.89232e-06
5.0517e-06
-2.07347e-06
5.58872e-06
-2.18916e-06
6.09753e-06
-2.21394e-06
6.53793e-06
-2.12365e-06
6.85417e-06
-1.90158e-06
6.97309e-06
-1.54767e-06
6.80483e-06
-1.09038e-06
6.2481e-06
-5.98246e-07
5.20212e-06
-1.85506e-07
3.58695e-06
1.37551e-06
-1.35932e-07
-1.11357e-06
-4.56697e-07
-2.9397e-06
-8.67512e-07
-4.32803e-06
-1.28882e-06
-5.29446e-06
-1.66574e-06
-5.88844e-06
-1.96736e-06
-6.17398e-06
-2.18189e-06
-6.21775e-06
-2.31071e-06
-6.08162e-06
-2.36304e-06
-5.81872e-06
-2.35184e-06
-5.47219e-06
-2.29112e-06
-5.07552e-06
-2.19422e-06
-4.65379e-06
-2.07295e-06
-4.22504e-06
-1.93732e-06
-3.80174e-06
-1.79544e-06
-3.39206e-06
-1.65374e-06
-3.00086e-06
-1.51715e-06
-2.63059e-06
-1.38943e-06
-2.28191e-06
-1.27336e-06
-1.95419e-06
-1.17095e-06
-1.64585e-06
-1.08371e-06
-1.35465e-06
-1.0127e-06
-1.07788e-06
-9.58738e-07
-8.12483e-07
-9.2244e-07
-5.55174e-07
-9.04312e-07
-3.02483e-07
-9.04784e-07
-5.0817e-08
-9.24224e-07
2.03511e-07
-9.62931e-07
4.6425e-07
-1.0211e-06
7.35177e-07
-1.09874e-06
1.02005e-06
-1.19561e-06
1.32256e-06
-1.31103e-06
1.64621e-06
-1.44371e-06
1.99418e-06
-1.59152e-06
2.36913e-06
-1.75115e-06
2.77285e-06
-1.91781e-06
3.20585e-06
-2.08476e-06
3.66673e-06
-2.24296e-06
4.15136e-06
-2.38074e-06
4.65173e-06
-2.48363e-06
5.15459e-06
-2.53466e-06
5.63975e-06
-2.51533e-06
6.0782e-06
-2.40763e-06
6.43022e-06
-2.19756e-06
6.6441e-06
-1.88047e-06
6.656e-06
-1.46792e-06
6.39228e-06
-9.95193e-07
5.77537e-06
-5.27082e-07
4.73401e-06
-1.57937e-07
3.2178e-06
1.21757e-06
-1.17602e-07
-9.95965e-07
-4.05224e-07
-2.65208e-06
-7.90162e-07
-3.94309e-06
-1.2077e-06
-4.87693e-06
-1.60897e-06
-5.48717e-06
-1.96228e-06
-5.82068e-06
-2.25092e-06
-5.9291e-06
-2.46973e-06
-5.86282e-06
-2.6213e-06
-5.66715e-06
-2.7129e-06
-5.38058e-06
-2.75403e-06
-5.0344e-06
-2.75478e-06
-4.65303e-06
-2.72485e-06
-4.25496e-06
-2.67298e-06
-3.85362e-06
-2.60667e-06
-3.45836e-06
-2.53221e-06
-3.07531e-06
-2.45472e-06
-2.70808e-06
-2.37828e-06
-2.35835e-06
-2.3061e-06
-2.02637e-06
-2.24068e-06
-1.71127e-06
-2.18394e-06
-1.41139e-06
-2.13735e-06
-1.12446e-06
-2.10205e-06
-8.47784e-07
-2.07889e-06
-5.78326e-07
-2.06854e-06
-3.12835e-07
-2.07147e-06
-4.78925e-08
-2.08798e-06
2.2002e-07
-2.11819e-06
4.94469e-07
-2.16203e-06
7.79011e-07
-2.21909e-06
1.07712e-06
-2.28861e-06
1.39208e-06
-2.3693e-06
1.72689e-06
-2.45915e-06
2.08404e-06
-2.55529e-06
2.46526e-06
-2.65367e-06
2.87123e-06
-2.74888e-06
3.30105e-06
-2.83381e-06
3.75167e-06
-2.89955e-06
4.21709e-06
-2.93525e-06
4.68742e-06
-2.92835e-06
5.14769e-06
-2.86522e-06
5.57662e-06
-2.73238e-06
5.94536e-06
-2.51867e-06
6.2165e-06
-2.21834e-06
6.34378e-06
-1.83536e-06
6.27301e-06
-1.38811e-06
5.94503e-06
-9.139e-07
5.30117e-06
-4.71228e-07
4.29134e-06
-1.37626e-07
2.8842e-06
1.07994e-06
-1.04301e-07
-8.91664e-07
-3.6636e-07
-2.39002e-06
-7.28946e-07
-3.5805e-06
-1.13895e-06
-4.46692e-06
-1.55353e-06
-5.07258e-06
-1.94205e-06
-5.43215e-06
-2.28546e-06
-5.5857e-06
-2.57432e-06
-5.57396e-06
-2.8064e-06
-5.43506e-06
-2.98432e-06
-5.20266e-06
-3.11361e-06
-4.90511e-06
-3.20122e-06
-4.56542e-06
-3.25452e-06
-4.20166e-06
-3.28065e-06
-3.82749e-06
-3.28613e-06
-3.45288e-06
-3.27669e-06
-3.08475e-06
-3.25723e-06
-2.72754e-06
-3.23184e-06
-2.38375e-06
-3.20387e-06
-2.05434e-06
-3.17604e-06
-1.7391e-06
-3.15053e-06
-1.4369e-06
-3.12905e-06
-1.14595e-06
-3.11293e-06
-8.63903e-07
-3.10319e-06
-5.88071e-07
-3.10055e-06
-3.15472e-07
-3.1055e-06
-4.29441e-08
-3.11826e-06
2.3278e-07
-3.13879e-06
5.15e-07
-3.16674e-06
8.06963e-07
-3.20139e-06
1.11177e-06
-3.24157e-06
1.43226e-06
-3.2855e-06
1.77083e-06
-3.33073e-06
2.12927e-06
-3.37392e-06
2.50845e-06
-3.41069e-06
2.908e-06
-3.43546e-06
3.32583e-06
-3.44137e-06
3.75758e-06
-3.42021e-06
4.19593e-06
-3.36259e-06
4.62981e-06
-3.25838e-06
5.04348e-06
-3.09749e-06
5.41573e-06
-2.87119e-06
5.71906e-06
-2.57412e-06
5.91944e-06
-2.2069e-06
5.97655e-06
-1.77921e-06
5.84533e-06
-1.31304e-06
5.47886e-06
-8.44986e-07
4.83312e-06
-4.26728e-07
3.87309e-06
-1.22178e-07
2.57965e-06
9.57767e-07
-9.44808e-08
-7.97184e-07
-3.36825e-07
-2.14767e-06
-6.80776e-07
-3.23655e-06
-1.08215e-06
-4.06555e-06
-1.50349e-06
-4.65124e-06
-1.91605e-06
-5.01959e-06
-2.29995e-06
-5.2018e-06
-2.64317e-06
-5.23074e-06
-2.94006e-06
-5.13818e-06
-3.18963e-06
-4.95309e-06
-3.39408e-06
-4.70066e-06
-3.55752e-06
-4.40199e-06
-3.68505e-06
-4.07413e-06
-3.7821e-06
-3.73044e-06
-3.85396e-06
-3.38102e-06
-3.90557e-06
-3.03314e-06
-3.94134e-06
-2.69178e-06
-3.9651e-06
-2.35999e-06
-3.98012e-06
-2.03932e-06
-3.98913e-06
-1.73008e-06
-3.9944e-06
-1.43164e-06
-3.99771e-06
-1.14263e-06
-4.00051e-06
-8.61106e-07
-4.00386e-06
-5.84721e-07
-4.00851e-06
-3.10818e-07
-4.01492e-06
-3.65425e-08
-4.0232e-06
2.41063e-07
-4.03317e-06
5.24969e-07
-4.04426e-06
8.18058e-07
-4.05551e-06
1.12301e-06
-4.06542e-06
1.44217e-06
-4.07197e-06
1.77737e-06
-4.07241e-06
2.12971e-06
-4.06325e-06
2.49928e-06
-4.04009e-06
2.88484e-06
-3.99761e-06
3.28335e-06
-3.92957e-06
3.68954e-06
-3.82892e-06
4.09527e-06
-3.68805e-06
4.48895e-06
-3.49943e-06
4.85486e-06
-3.25637e-06
5.17266e-06
-2.95434e-06
5.41704e-06
-2.59267e-06
5.55777e-06
-2.17658e-06
5.56046e-06
-1.7194e-06
5.38815e-06
-1.24455e-06
5.00401e-06
-7.86593e-07
4.37516e-06
-3.90752e-07
3.47724e-06
-1.10117e-07
2.29901e-06
8.4765e-07
-8.71373e-08
-7.10046e-07
-3.14257e-07
-1.92055e-06
-6.42994e-07
-2.90782e-06
-1.03597e-06
-3.67258e-06
-1.46029e-06
-4.22691e-06
-1.88936e-06
-4.59053e-06
-2.30332e-06
-4.78784e-06
-2.68871e-06
-4.84534e-06
-3.03753e-06
-4.78935e-06
-3.3461e-06
-4.64452e-06
-3.6139e-06
-4.43286e-06
-3.8426e-06
-4.17328e-06
-4.03522e-06
-3.88151e-06
-4.19551e-06
-3.57016e-06
-4.32746e-06
-3.24906e-06
-4.43508e-06
-2.92552e-06
-4.5221e-06
-2.60476e-06
-4.59193e-06
-2.29016e-06
-4.64758e-06
-1.98367e-06
-4.69165e-06
-1.68602e-06
-4.7263e-06
-1.39699e-06
-4.75334e-06
-1.11559e-06
-4.77417e-06
-8.40274e-07
-4.78986e-06
-5.69032e-07
-4.80112e-06
-2.99554e-07
-4.80834e-06
-2.93237e-08
-4.81155e-06
2.44271e-07
-4.81042e-06
5.23838e-07
-4.80423e-06
8.11867e-07
-4.79182e-06
1.1106e-06
-4.77155e-06
1.42191e-06
-4.74123e-06
1.74706e-06
-4.69807e-06
2.08655e-06
-4.63862e-06
2.43983e-06
-4.55875e-06
2.80497e-06
-4.4537e-06
3.17829e-06
-4.3181e-06
3.55395e-06
-4.14629e-06
3.92346e-06
-3.93261e-06
4.27527e-06
-3.67202e-06
4.59427e-06
-3.36094e-06
4.86158e-06
-2.99835e-06
5.05445e-06
-2.58722e-06
5.14664e-06
-2.13599e-06
5.10923e-06
-1.6601e-06
4.91226e-06
-1.18312e-06
4.52702e-06
-7.37018e-07
3.92906e-06
-3.61297e-07
3.10152e-06
-1.00504e-07
2.03822e-06
7.47146e-07
-8.1595e-08
-6.28451e-07
-2.96945e-07
-1.7052e-06
-6.13427e-07
-2.59133e-06
-9.98845e-07
-3.28716e-06
-1.42408e-06
-3.80168e-06
-1.86457e-06
-4.15003e-06
-2.30099e-06
-4.35143e-06
-2.71914e-06
-4.42719e-06
-3.10947e-06
-4.39902e-06
-3.46632e-06
-4.28768e-06
-3.78703e-06
-4.11214e-06
-4.07125e-06
-3.88907e-06
-4.32015e-06
-3.63261e-06
-4.53591e-06
-3.3544e-06
-4.72128e-06
-3.06368e-06
-4.87926e-06
-2.76755e-06
-5.01284e-06
-2.47118e-06
-5.12488e-06
-2.17811e-06
-5.21802e-06
-1.89053e-06
-5.29459e-06
-1.60945e-06
-5.35659e-06
-1.33499e-06
-5.40569e-06
-1.06648e-06
-5.44324e-06
-8.02729e-07
-5.47021e-06
-5.42063e-07
-5.48725e-06
-2.82516e-07
-5.49465e-06
-2.19206e-08
-5.49235e-06
2.41977e-07
-5.47992e-06
5.11409e-07
-5.45653e-06
7.8847e-07
-5.4209e-06
1.07498e-06
-5.37134e-06
1.37234e-06
-5.30564e-06
1.68136e-06
-5.22111e-06
2.00202e-06
-5.11454e-06
2.33326e-06
-4.98226e-06
2.6727e-06
-4.82023e-06
3.01626e-06
-4.62416e-06
3.35788e-06
-4.38984e-06
3.68914e-06
-4.11351e-06
3.99894e-06
-3.79246e-06
4.27322e-06
-3.42579e-06
4.4949e-06
-3.01533e-06
4.644e-06
-2.56676e-06
4.69807e-06
-2.09071e-06
4.63317e-06
-1.60367e-06
4.42522e-06
-1.12862e-06
4.05197e-06
-6.94849e-07
3.49529e-06
-3.36949e-07
2.74362e-06
-9.27233e-08
1.79399e-06
6.54422e-07
-7.73867e-08
-5.51065e-07
-2.83634e-07
-1.49896e-06
-5.90345e-07
-2.28462e-06
-9.69272e-07
-2.90824e-06
-1.39433e-06
-3.37663e-06
-1.84283e-06
-3.70153e-06
-2.29613e-06
-3.89812e-06
-2.73978e-06
-3.98354e-06
-3.16323e-06
-3.97557e-06
-3.55938e-06
-3.89154e-06
-3.92394e-06
-3.74757e-06
-4.25488e-06
-3.55812e-06
-4.55183e-06
-3.33567e-06
-4.81556e-06
-3.09067e-06
-5.04764e-06
-2.8316e-06
-5.2501e-06
-2.56509e-06
-5.42517e-06
-2.29611e-06
-5.5751e-06
-2.02818e-06
-5.70209e-06
-1.76355e-06
-5.80812e-06
-1.50342e-06
-5.89497e-06
-1.24814e-06
-5.96412e-06
-9.97336e-07
-6.01676e-06
-7.5009e-07
-6.05376e-06
-5.0506e-07
-6.07567e-06
-2.60607e-07
-6.08268e-06
-1.49051e-08
-6.07465e-06
2.33945e-07
-6.05106e-06
4.87811e-07
-6.01099e-06
7.48404e-07
-5.95316e-06
1.01715e-06
-5.87588e-06
1.29506e-06
-5.77704e-06
1.58252e-06
-5.65416e-06
1.87914e-06
-5.50442e-06
2.18352e-06
-5.32472e-06
2.49299e-06
-5.11183e-06
2.80337e-06
-4.86261e-06
3.10866e-06
-4.57428e-06
3.40081e-06
-4.24485e-06
3.66951e-06
-3.87368e-06
3.90205e-06
-3.46209e-06
4.08332e-06
-3.01419e-06
4.19609e-06
-2.53763e-06
4.22151e-06
-2.04441e-06
4.13996e-06
-1.55144e-06
3.93225e-06
-1.08071e-06
3.58124e-06
-6.58976e-07
3.07356e-06
-3.16702e-07
2.40135e-06
-8.63618e-08
1.56365e-06
5.68061e-07
-7.41815e-08
-4.76883e-07
-2.73398e-07
-1.29974e-06
-5.72385e-07
-1.98564e-06
-9.45908e-07
-2.53471e-06
-1.3703e-06
-2.95224e-06
-1.82448e-06
-3.24735e-06
-2.29056e-06
-3.43204e-06
-2.75407e-06
-3.52003e-06
-3.20387e-06
-3.52577e-06
-3.63183e-06
-3.46358e-06
-4.03243e-06
-3.34698e-06
-4.4023e-06
-3.18826e-06
-4.73975e-06
-2.99822e-06
-5.04436e-06
-2.78605e-06
-5.31666e-06
-2.55931e-06
-5.55774e-06
-2.32401e-06
-5.76908e-06
-2.08476e-06
-5.95237e-06
-1.8449e-06
-6.10928e-06
-1.60663e-06
-6.24147e-06
-1.37124e-06
-6.35039e-06
-1.13922e-06
-6.43732e-06
-9.10405e-07
-6.50327e-06
-6.84137e-07
-6.54898e-06
-4.59355e-07
-6.57486e-06
-2.34725e-07
-6.58102e-06
-8.74503e-09
-6.56722e-06
2.2015e-07
-6.53289e-06
4.53481e-07
-6.4771e-06
6.92611e-07
-6.39857e-06
9.38622e-07
-6.29569e-06
1.19218e-06
-6.16653e-06
1.45336e-06
-6.00891e-06
1.72152e-06
-5.82045e-06
1.99506e-06
-5.59869e-06
2.27124e-06
-5.34127e-06
2.54595e-06
-5.04614e-06
2.81353e-06
-4.71188e-06
3.06655e-06
-4.3381e-06
3.29573e-06
-3.9259e-06
3.48985e-06
-3.47845e-06
3.63586e-06
-3.00157e-06
3.71921e-06
-2.50433e-06
3.72428e-06
-1.99957e-06
3.6352e-06
-1.50416e-06
3.43684e-06
-1.039e-06
3.11608e-06
-6.28544e-07
2.6631e-06
-2.99838e-07
2.07264e-06
-8.11351e-08
1.34495e-06
4.86925e-07
-7.17413e-08
-4.05142e-07
-2.65546e-07
-1.10593e-06
-5.58486e-07
-1.6927e-06
-9.27616e-07
-2.16558e-06
-1.35118e-06
-2.52868e-06
-1.80944e-06
-2.78909e-06
-2.28522e-06
-2.95625e-06
-2.7642e-06
-3.04105e-06
-3.23487e-06
-3.0551e-06
-3.68839e-06
-3.01006e-06
-4.11831e-06
-2.91705e-06
-4.52021e-06
-2.78636e-06
-4.89134e-06
-2.62709e-06
-5.23028e-06
-2.44711e-06
-5.5366e-06
-2.25299e-06
-5.8106e-06
-2.05001e-06
-6.05307e-06
-1.84229e-06
-6.26511e-06
-1.63286e-06
-6.44794e-06
-1.4238e-06
-6.60282e-06
-1.21636e-06
-6.73092e-06
-1.01112e-06
-6.83326e-06
-8.0806e-07
-6.91068e-06
-6.06722e-07
-6.96374e-06
-4.06292e-07
-6.99276e-06
-2.05712e-07
-6.99772e-06
-3.77605e-09
-6.97834e-06
2.0077e-07
-6.934e-06
4.09138e-07
-6.86377e-06
6.22379e-07
-6.76643e-06
8.41281e-07
-6.64049e-06
1.06624e-06
-6.48427e-06
1.29713e-06
-6.29589e-06
1.53315e-06
-6.07347e-06
1.77264e-06
-5.81519e-06
2.01296e-06
-5.51954e-06
2.25029e-06
-5.18548e-06
2.47947e-06
-4.81282e-06
2.6939e-06
-4.40254e-06
2.88545e-06
-3.95722e-06
3.04452e-06
-3.48147e-06
3.16011e-06
-2.98242e-06
3.22016e-06
-2.47013e-06
3.21199e-06
-1.95788e-06
3.12295e-06
-1.46229e-06
2.94125e-06
-1.00315e-06
2.65694e-06
-6.02913e-07
2.26286e-06
-2.8584e-07
1.75557e-06
-7.68448e-08
1.13596e-06
4.10081e-07
-6.98924e-08
-3.35249e-07
-2.59563e-07
-9.16264e-07
-5.47821e-07
-1.40444e-06
-9.13461e-07
-1.79994e-06
-1.33621e-06
-2.10593e-06
-1.79743e-06
-2.32788e-06
-2.28058e-06
-2.47309e-06
-2.77153e-06
-2.5501e-06
-3.25859e-06
-2.56805e-06
-3.73242e-06
-2.53622e-06
-4.18588e-06
-2.46359e-06
-4.61374e-06
-2.35849e-06
-5.01241e-06
-2.22842e-06
-5.37962e-06
-2.0799e-06
-5.71417e-06
-1.91844e-06
-6.01565e-06
-1.74853e-06
-6.28424e-06
-1.5737e-06
-6.52051e-06
-1.39659e-06
-6.72525e-06
-1.21906e-06
-6.89935e-06
-1.04226e-06
-7.04369e-06
-8.66777e-07
-7.15906e-06
-6.92687e-07
-7.2461e-06
-5.19685e-07
-7.30522e-06
-3.47166e-07
-7.33662e-06
-1.74315e-07
-7.34021e-06
-1.87067e-10
-7.31563e-06
1.76187e-07
-7.26224e-06
3.55749e-07
-7.17914e-06
5.39284e-07
-7.0652e-06
7.27341e-07
-6.91908e-06
9.20124e-07
-6.73933e-06
1.11737e-06
-6.52442e-06
1.31824e-06
-6.27295e-06
1.52117e-06
-5.98371e-06
1.72373e-06
-5.65595e-06
1.92253e-06
-5.28957e-06
2.11309e-06
-4.88543e-06
2.28975e-06
-4.44565e-06
2.44568e-06
-3.97401e-06
2.57288e-06
-3.47625e-06
2.66236e-06
-2.96048e-06
2.70439e-06
-2.43741e-06
2.68892e-06
-1.92053e-06
2.60607e-06
-1.4261e-06
2.44681e-06
-9.72861e-07
2.2037e-06
-5.81604e-07
1.8716e-06
-2.74338e-07
1.4483e-06
-7.33511e-08
9.34969e-07
3.3673e-07
-6.85076e-08
-2.66742e-07
-2.55062e-07
-7.29709e-07
-5.3976e-07
-1.11974e-06
-9.02694e-07
-1.43701e-06
-1.32473e-06
-1.68389e-06
-1.7881e-06
-1.86451e-06
-2.2768e-06
-1.98439e-06
-2.77691e-06
-2.04999e-06
-3.27663e-06
-2.06833e-06
-3.76631e-06
-2.04654e-06
-4.2383e-06
-1.9916e-06
-4.68676e-06
-1.91003e-06
-5.10743e-06
-1.80776e-06
-5.49737e-06
-1.68996e-06
-5.85474e-06
-1.56107e-06
-6.17854e-06
-1.42472e-06
-6.46845e-06
-1.2838e-06
-6.72455e-06
-1.14048e-06
-6.94727e-06
-9.9634e-07
-7.13717e-06
-8.52366e-07
-7.29486e-06
-7.09089e-07
-7.42091e-06
-5.66635e-07
-7.51578e-06
-4.24816e-07
-7.57975e-06
-2.83196e-07
-7.6129e-06
-1.41168e-07
-7.61506e-06
1.97567e-09
-7.58584e-06
1.46967e-07
-7.52459e-06
2.94499e-07
-7.43044e-06
4.4514e-07
-7.30236e-06
5.99256e-07
-7.13916e-06
7.56922e-07
-6.93961e-06
9.17827e-07
-6.70254e-06
1.08118e-06
-6.42697e-06
1.24559e-06
-6.11225e-06
1.409e-06
-5.75828e-06
1.56857e-06
-5.36577e-06
1.72058e-06
-4.93645e-06
1.86043e-06
-4.47337e-06
1.98261e-06
-3.98126e-06
2.08076e-06
-3.46673e-06
2.14782e-06
-2.93857e-06
2.17624e-06
-2.40794e-06
2.15829e-06
-1.88838e-06
2.08651e-06
-1.39574e-06
1.95418e-06
-9.47903e-07
1.75587e-06
-5.64267e-07
1.48796e-06
-2.65067e-07
1.1491e-06
-7.0555e-08
7.40458e-07
2.66175e-07
-6.74946e-08
-1.99247e-07
-2.51759e-07
-5.45445e-07
-5.33821e-07
-8.37678e-07
-8.94727e-07
-1.0761e-06
-1.31619e-06
-1.26242e-06
-1.7811e-06
-1.3996e-06
-2.2739e-06
-1.4916e-06
-2.78083e-06
-1.54306e-06
-3.29007e-06
-1.55908e-06
-3.79177e-06
-1.54485e-06
-4.27789e-06
-1.50548e-06
-4.74215e-06
-1.44577e-06
-5.17979e-06
-1.37012e-06
-5.58735e-06
-1.2824e-06
-5.9625e-06
-1.18593e-06
-6.30377e-06
-1.08345e-06
-6.6104e-06
-9.77171e-07
-6.88211e-06
-8.68767e-07
-7.11901e-06
-7.59448e-07
-7.32137e-06
-6.50005e-07
-7.48958e-06
-5.40873e-07
-7.62404e-06
-4.32183e-07
-7.72503e-06
-3.23825e-07
-7.79272e-06
-2.15503e-07
-7.82709e-06
-1.06791e-07
-7.82793e-06
2.81344e-09
-7.7948e-06
1.13831e-07
-7.72704e-06
2.26746e-07
-7.62385e-06
3.41948e-07
-7.48426e-06
4.59665e-07
-7.30724e-06
5.79899e-07
-7.09177e-06
7.02358e-07
-6.83697e-06
8.26376e-07
-6.54222e-06
9.50845e-07
-6.20735e-06
1.07414e-06
-5.83283e-06
1.19404e-06
-5.41997e-06
1.30772e-06
-4.97122e-06
1.41167e-06
-4.49037e-06
1.50175e-06
-3.98283e-06
1.57323e-06
-3.45588e-06
1.62087e-06
-2.9188e-06
1.63916e-06
-2.383e-06
1.62249e-06
-1.86202e-06
1.56552e-06
-1.37134e-06
1.4635e-06
-9.28108e-07
1.31264e-06
-5.50649e-07
1.1105e-06
-2.57836e-07
8.56292e-07
-6.83865e-08
5.51008e-07
1.97788e-07
-6.67868e-08
-1.3246e-07
-2.49446e-07
-3.62786e-07
-5.29652e-07
-5.57473e-07
-8.89117e-07
-7.16636e-07
-1.31016e-06
-8.41384e-07
-1.77613e-06
-9.33627e-07
-2.27181e-06
-9.9592e-07
-2.78359e-06
-1.03129e-06
-3.29964e-06
-1.04302e-06
-3.80996e-06
-1.03453e-06
-4.30629e-06
-1.00915e-06
-4.78202e-06
-9.70044e-07
-5.23202e-06
-9.20119e-07
-5.65247e-06
-8.61945e-07
-6.04067e-06
-7.97734e-07
-6.39479e-06
-7.29328e-07
-6.71375e-06
-6.58207e-07
-6.99701e-06
-5.8551e-07
-7.24439e-06
-5.12062e-07
-7.45599e-06
-4.38411e-07
-7.632e-06
-3.64863e-07
-7.77266e-06
-2.91524e-07
-7.87815e-06
-2.18337e-07
-7.94853e-06
-1.45119e-07
-7.98372e-06
-7.15986e-08
-7.98345e-06
2.54311e-09
-7.94726e-06
7.76388e-08
-7.87451e-06
1.53995e-07
-7.76441e-06
2.31852e-07
-7.61609e-06
3.11339e-07
-7.42862e-06
3.92433e-07
-7.20117e-06
4.74908e-07
-6.93308e-06
5.58288e-07
-6.62404e-06
6.41799e-07
-6.27422e-06
7.24319e-07
-5.88452e-06
8.04341e-07
-5.45674e-06
8.79944e-07
-4.99385e-06
9.48776e-07
-4.50017e-06
1.00807e-06
-3.98163e-06
1.05469e-06
-3.44594e-06
1.08518e-06
-2.90272e-06
1.09594e-06
-2.36355e-06
1.08332e-06
-1.8419e-06
1.04388e-06
-1.35297e-06
9.74571e-07
-9.13355e-07
8.73019e-07
-5.40571e-07
7.3772e-07
-2.52514e-07
5.68235e-07
-6.6797e-08
3.65292e-07
1.30991e-07
-6.63386e-08
-6.61212e-08
-2.47979e-07
-1.81145e-07
-5.27003e-07
-2.78448e-07
-8.85547e-07
-3.58092e-07
-1.30631e-06
-4.20623e-07
-1.77296e-06
-4.66976e-07
-2.27047e-06
-4.98407e-07
-2.78536e-06
-5.16402e-07
-3.3058e-06
-5.22584e-07
-3.8217e-06
-5.18633e-07
-4.32464e-06
-5.062e-07
-4.80783e-06
-4.86859e-07
-5.2659e-06
-4.6205e-07
-5.69479e-06
-4.33057e-07
-6.09153e-06
-4.00984e-07
-6.45411e-06
-3.66757e-07
-6.78119e-06
-3.31119e-07
-7.07206e-06
-2.94645e-07
-7.32637e-06
-2.57752e-07
-7.54406e-06
-2.2072e-07
-7.72521e-06
-1.83709e-07
-7.86996e-06
-1.46777e-07
-7.9784e-06
-1.09899e-07
-8.05053e-06
-7.29884e-08
-8.08621e-06
-3.59147e-08
-8.08515e-06
1.47803e-09
-8.04686e-06
3.93513e-08
-7.97072e-06
7.78533e-08
-7.85596e-06
1.17098e-07
-7.70177e-06
1.57143e-07
-7.50731e-06
1.9797e-07
-7.27185e-06
2.39456e-07
-6.99492e-06
2.81353e-07
-6.67638e-06
3.23264e-07