/*--------------------------------*- C++ -*----------------------------------*\
  =========                 |
  \\      /  F ield         | OpenFOAM: The Open Source CFD Toolbox
   \\    /   O peration     | Website:  https://openfoam.org
    \\  /    A nd           | Version:  7
     \\/     M anipulation  |
\*---------------------------------------------------------------------------*/
FoamFile
{
    version     2.0;
    format      ascii;
    class       volScalarField;
    location    "0.0354";
    object      p;
}
// * * * * * * * * * * * * * * * * * * * * * * * * * * * * * * * * * * * * * //

dimensions      [0 2 -2 0 0 0 0];

internalField   nonuniform List<scalar> 
2500
(
1.84539e-06
-0.000501826
-0.00196105
-0.00407026
-0.00650556
-0.00897324
-0.0112814
-0.01327
-0.0148211
-0.0158506
-0.0163016
-0.0161392
-0.0153466
-0.0139221
-0.0118768
-0.00923257
-0.00602011
-0.00227799
0.00194866
0.00660907
0.0116476
0.0170047
0.0226169
0.0284182
0.0343399
0.0403117
0.046262
0.0521185
0.0578089
0.0632619
0.0684078
0.0731796
0.077514
0.0813528
0.084644
0.0873432
0.0894156
0.0908372
0.0915972
0.0916996
0.0911661
0.0900387
0.0883829
0.0862924
0.0838948
0.0813575
0.0788887
0.0767707
0.075326
0.0748497
0.000513944
9.5868e-06
-0.00117454
-0.00283398
-0.00472909
-0.00666144
-0.00846969
-0.010021
-0.0112114
-0.0119634
-0.0122214
-0.0119492
-0.0111268
-0.00974818
-0.0078193
-0.00535642
-0.00238459
0.00106354
0.0049488
0.00922637
0.0138466
0.0187557
0.0238963
0.0292083
0.0346292
0.0400947
0.0455395
0.0508977
0.0561038
0.0610931
0.065803
0.0701735
0.0741486
0.0776772
0.0807143
0.0832225
0.0851736
0.0865494
0.0873443
0.0875664
0.0872398
0.0864065
0.0851291
0.0834931
0.0816102
0.07962
0.0776897
0.0760158
0.0748461
0.0743734
0.00198003
0.00119613
3.71393e-06
-0.00149394
-0.00314731
-0.00480519
-0.00633688
-0.0076331
-0.00860521
-0.00918443
-0.00932017
-0.00897808
-0.00813817
-0.00679304
-0.00494628
-0.00261105
0.0001911
0.00343137
0.0070746
0.0110802
0.0154027
0.0199927
0.0247973
0.0297607
0.034825
0.0399304
0.0450162
0.0500215
0.0548852
0.0595478
0.0639514
0.068041
0.0717654
0.0750782
0.0779393
0.0803154
0.082182
0.0835244
0.0843391
0.0846355
0.0844373
0.083784
0.0827324
0.0813585
0.0797579
0.0780463
0.0763591
0.07485
0.0736752
0.0729301
0.0041163
0.00287175
0.00148421
-3.93407e-05
-0.00163495
-0.00318414
-0.00458181
-0.00574019
-0.00658611
-0.00706121
-0.00712169
-0.00673729
-0.00589004
-0.00457304
-0.00278927
-0.000550446
0.00212396
0.00520764
0.0086683
0.0124684
0.0165657
0.0209141
0.0254643
0.0301639
0.0349587
0.0397924
0.044608
0.0493481
0.0539556
0.0583744
0.0625504
0.066432
0.0699716
0.0731259
0.0758578
0.0781367
0.0799402
0.0812548
0.0820778
0.0824178
0.0822963
0.0817483
0.0808239
0.0795882
0.0781215
0.076518
0.0748883
0.0733539
0.0719863
0.0707989
0.00662684
0.00481801
0.00313808
0.00148722
-0.00015152
-0.00168557
-0.00303135
-0.00412085
-0.00489587
-0.00530886
-0.00532364
-0.00491505
-0.00406825
-0.00277795
-0.00104754
0.00111174
0.00368161
0.00663749
0.00994918
0.0135815
0.017495
0.0216463
0.0259888
0.0304734
0.0350487
0.0396616
0.0442582
0.0487841
0.0531851
0.0574082
0.0614021
0.065118
0.0685108
0.0715397
0.0741693
0.0763708
0.0781226
0.0794119
0.0802351
0.0805992
0.0805224
0.0800347
0.0791783
0.078008
0.0765892
0.0749971
0.0733212
0.0716585
0.0700022
0.0682649
0.00926851
0.00686317
0.00483322
0.00298379
0.00122626
-0.000366076
-0.00172692
-0.00280545
-0.00355715
-0.00394485
-0.00394009
-0.00352334
-0.00268357
-0.00141785
0.000269186
0.00236601
0.00485477
0.00771186
0.0109085
0.0144113
0.0181829
0.022182
0.0263645
0.0306835
0.0350902
0.039534
0.0439633
0.0483263
0.0525712
0.0566471
0.0605049
0.0640977
0.0673821
0.0703187
0.0728733
0.0750176
0.0767303
0.0779977
0.0788151
0.0791867
0.0791269
0.0786602
0.0778214
0.0766551
0.0752138
0.0735563
0.0717558
0.0698913
0.0678863
0.0655608
0.0118751
0.00886733
0.00645447
0.00435724
0.002425
0.000717723
-0.000711516
-0.00182631
-0.00259413
-0.00298729
-0.00298482
-0.00257287
-0.00174461
-0.000499993
0.00115454
0.00320652
0.00563787
0.00842535
0.011541
0.0149526
0.018624
0.0225159
0.0265858
0.0307887
0.0350776
0.0394038
0.0437178
0.0479693
0.0521083
0.0560855
0.059853
0.0633653
0.0665798
0.0694577
0.0719651
0.0740735
0.0757608
0.077012
0.0778201
0.0781864
0.078121
0.077643
0.07678
0.0755676
0.0740473
0.0722644
0.0702802
0.0681617
0.0657729
0.0628516
0.0143162
0.0107149
0.00790289
0.00552617
0.00338053
0.00151737
-1.99439e-05
-0.00120681
-0.00202093
-0.00244307
-0.0024592
-0.00206104
-0.00124602
-1.7302e-05
0.00161648
0.00364142
0.00603872
0.00878496
0.0118525
0.0152096
0.0188213
0.0226491
0.0266519
0.030786
0.0350058
0.039264
0.0435122
0.0477015
0.0517829
0.055708
0.0594296
0.0629027
0.0660849
0.0689373
0.0714253
0.0735196
0.0751967
0.0764396
0.0772386
0.0775917
0.0775045
0.0769907
0.0760714
0.0747747
0.0731327
0.0711802
0.0689701
0.0665627
0.0637709
0.0602601
0.016493
0.0123114
0.00909298
0.00641651
0.00403095
0.00198277
0.000308511
-0.000976755
-0.00185934
-0.00232739
-0.0023732
-0.00199375
-0.00119072
2.94276e-05
0.00165555
0.00367201
0.00605885
0.00879203
0.0118437
0.0151824
0.0187735
0.0225792
0.0265591
0.0306704
0.0348684
0.0391065
0.0433372
0.0475123
0.0515831
0.0555017
0.059221
0.0626957
0.0658829
0.068743
0.0712403
0.0733439
0.0750281
0.0762736
0.0770675
0.0774041
0.0772847
0.0767179
0.0757191
0.0743096
0.0725141
0.0703594
0.0678934
0.0651731
0.0619673
0.0578769
0.0183295
0.0135788
0.0099502
0.00696047
0.00431654
0.00206266
0.000230788
-0.00117163
-0.00213812
-0.00266324
-0.00274499
-0.00238524
-0.00158982
-0.000368553
0.00126478
0.0032925
0.00569319
0.00844186
0.0115101
0.0148662
0.0184754
0.0223003
0.0263008
0.0304345
0.0346571
0.0389224
0.0431832
0.0473913
0.0514983
0.0554557
0.0592162
0.0627335
0.0659639
0.0688662
0.071403
0.0735411
0.0752524
0.0765146
0.0773114
0.0776331
0.0774768
0.0768462
0.0757515
0.0742087
0.0722363
0.0698553
0.0671109
0.0640602
0.0604325
0.0557692
0.0197639
0.0144506
0.0104083
0.00709539
0.00417982
0.00170553
-0.000298358
-0.0018306
-0.00289078
-0.00347904
-0.00359853
-0.00325571
-0.00246039
-0.00122576
0.000431622
0.00249186
0.00493184
0.00772526
0.0108428
0.0142522
0.0179184
0.0218037
0.0258681
0.0300691
0.0343624
0.0387019
0.0430401
0.0473285
0.0515183
0.0555603
0.059406
0.0630081
0.0663209
0.0693014
0.0719099
0.0741104
0.0758719
0.0771685
0.0779802
0.0782934
0.0781007
0.0774013
0.0762008
0.0745104
0.0723441
0.0697185
0.0666782
0.0632825
0.0592243
0.0539889
0.0207433
0.0148672
0.0104064
0.00676194
0.00356459
0.00085937
-0.00132623
-0.00299607
-0.00415495
-0.00480796
-0.00496294
-0.00463068
-0.00382484
-0.00256198
-0.000861524
0.00125425
0.00376029
0.00662877
0.00982917
0.0133284
0.0170906
0.0210778
0.0252493
0.0295626
0.0339728
0.0384335
0.0428967
0.0473133
0.0516332
0.0558062
0.0597824
0.0635125
0.0669489
0.0700459
0.0727609
0.0750548
0.0768929
0.0782456
0.0790888
0.0794045
0.079181
0.0784131
0.0771021
0.0752553
0.072883
0.0699986
0.0666475
0.0628931
0.0583936
0.0525787
0.0212191
0.0147736
0.00988659
0.00590235
0.00241479
-0.000529068
-0.00290252
-0.00471381
-0.00597235
-0.00668776
-0.00687224
-0.00654072
-0.00571067
-0.00440203
-0.00263717
-0.000440906
0.00215959
0.00513473
0.00845259
0.0120789
0.0159769
0.0201078
0.0244303
0.0289012
0.0334751
0.0381046
0.0427411
0.0473341
0.0518325
0.0561844
0.0603379
0.0642415
0.0678448
0.0710993
0.0739587
0.0763804
0.0783256
0.0797603
0.0806559
0.08099
0.0807463
0.0799152
0.078494
0.0764864
0.0738996
0.0707449
0.0670697
0.0629424
0.0579868
0.0515766
0.0211442
0.0141155
0.00879167
0.00445867
0.000673248
-0.00251504
-0.00507974
-0.00703308
-0.00838876
-0.00916063
-0.00936513
-0.00902125
-0.00815026
-0.00677552
-0.00492249
-0.00261865
0.000106511
0.00322147
0.00669265
0.0104844
0.0145589
0.0188762
0.0233942
0.0280688
0.0328536
0.0377005
0.0425594
0.0473786
0.0521053
0.0566857
0.0610654
0.0651903
0.0690068
0.0724629
0.0755084
0.0780963
0.0801833
0.0817305
0.0827046
0.0830779
0.0828295
0.0819454
0.0804186
0.0782497
0.0754432
0.0720087
0.0679963
0.0634804
0.0580496
0.0510198
0.0204699
0.0128378
0.00706305
0.00237121
-0.00171951
-0.00515668
-0.00791385
-0.0100071
-0.0114542
-0.0122733
-0.012485
-0.0121124
-0.0111806
-0.00971661
-0.00774907
-0.00530828
-0.00242623
0.000863429
0.0045253
0.00852215
0.0128149
0.0173623
0.0221213
0.0270466
0.0320909
0.0372046
0.0423364
0.047433
0.0524396
0.0573001
0.0619575
0.0663544
0.0704337
0.0741393
0.0774166
0.0802137
0.0824821
0.0841776
0.0852612
0.0856999
0.0854676
0.0845454
0.0829223
0.0805953
0.0775665
0.073844
0.0694813
0.0645594
0.0586298
0.050947
0.0191441
0.0108821
0.00463912
-0.000422995
-0.00482649
-0.00851598
-0.0114649
-0.0136933
-0.0152232
-0.016077
-0.0162797
-0.0158587
-0.0148432
-0.0132639
-0.0111527
-0.00854315
-0.0054698
-0.00196861
0.00192302
0.00616616
0.0107202
0.0155427
0.0205893
0.0258135
0.0311668
0.0365983
0.042055
0.047482
0.0528222
0.0580169
0.0630062
0.0677291
0.0721246
0.0761318
0.0796913
0.0827456
0.0852405
0.0871255
0.0883556
0.0888918
0.0887019
0.0877618
0.086056
0.0835779
0.0803269
0.0763097
0.0715832
0.0662358
0.0597791
0.0514019
0.0171093
0.00818538
0.00145363
-0.00399152
-0.00871541
-0.0126597
-0.0157978
-0.0181541
-0.0197551
-0.0206279
-0.0208021
-0.0203097
-0.0191841
-0.01746
-0.0151733
-0.0123604
-0.00905892
-0.00530725
-0.00114493
0.0033873
0.00824724
0.0133911
0.0187731
0.0243457
0.0300589
0.0358606
0.041696
0.0475083
0.0532381
0.0588239
0.0642025
0.0693092
0.0740783
0.0784441
0.0823414
0.0857067
0.088479
0.0906012
0.0920212
0.092693
0.0925781
0.0916461
0.0898763
0.0872582
0.0837879
0.0794705
0.0743666
0.0685722
0.0615556
0.0524345
0.0143015
0.00467812
-0.00256578
-0.00840792
-0.0134598
-0.0176603
-0.0209831
-0.0234573
-0.0251147
-0.0259872
-0.0261096
-0.0255189
-0.0242533
-0.0223519
-0.0198543
-0.0168007
-0.0132316
-0.00918818
-0.00471215
0.000153786
0.00536582
0.0108787
0.0166455
0.0226172
0.0287428
0.0349685
0.0412381
0.0474927
0.0536706
0.0597073
0.0655362
0.0710883
0.0762933
0.0810797
0.0853762
0.0891124
0.0922199
0.094634
0.0962944
0.0971474
0.0971467
0.0962551
0.0944458
0.0917033
0.08802
0.0833988
0.077904
0.0716393
0.0640259
0.0541037
0.0106484
0.000283113
-0.00749897
-0.013753
-0.0191402
-0.0235969
-0.0270978
-0.029677
-0.0313723
-0.0322214
-0.0322647
-0.0315449
-0.0301053
-0.0279899
-0.0252427
-0.0219077
-0.0180287
-0.0136496
-0.00881467
-0.00356847
0.00204353
0.00797469
0.0141768
0.0205999
0.0271916
0.0338969
0.040658
0.0474141
0.0541011
0.0606516
0.0669953
0.0730588
0.0787667
0.0840414
0.0888048
0.0929789
0.096487
0.0992554
0.101215
0.102303
0.102464
0.101652
0.0998342
0.0969884
0.0931025
0.0881763
0.0822777
0.0755182
0.067267
0.0564791
0.00606809
-0.00508606
-0.0134347
-0.0201162
-0.0258454
-0.0305567
-0.0342259
-0.0368937
-0.0386044
-0.0394024
-0.0393347
-0.0384501
-0.0367981
-0.0344279
-0.0313883
-0.0277276
-0.0234931
-0.0187318
-0.0134902
-0.00781513
-0.00175351
0.0046467
0.0113363
0.0182642
0.025377
0.0326189
0.0399305
0.0472494
0.054509
0.0616392
0.068566
0.0752115
0.0814946
0.0873315
0.0926364
0.0973228
0.101305
0.104499
0.106826
0.108211
0.10859
0.107907
0.106119
0.103198
0.0991245
0.0938954
0.0875813
0.0803017
0.0713683
0.0596431
0.000468085
-0.0115264
-0.020472
-0.0275967
-0.0336736
-0.0386353
-0.0424599
-0.0451955
-0.0468942
-0.0476081
-0.0473918
-0.0463015
-0.0443933
-0.0417225
-0.0383433
-0.0343084
-0.0296692
-0.0244758
-0.0187774
-0.0126226
-0.00605989
0.000861673
0.008092
0.0155794
0.0232698
0.0311064
0.0390291
0.0469738
0.0548721
0.062651
0.0702328
0.0775352
0.0844714
0.0909506
0.096879
0.102161
0.1067
0.110401
0.113173
0.114929
0.115593
0.115096
0.113387
0.110425
0.106187
0.100661
0.0939222
0.0860972
0.0764341
0.063693
-0.00625638
-0.019147
-0.0287219
-0.0363053
-0.0427338
-0.0479387
-0.0519011
-0.0546783
-0.0563316
-0.0569221
-0.0565133
-0.0551698
-0.0529554
-0.0499324
-0.0461609
-0.0416988
-0.0366017
-0.0309231
-0.0247146
-0.0180269
-0.0109097
-0.00341304
0.00441256
0.0125151
0.0208402
0.029331
0.0379265
0.0465617
0.0551666
0.0636658
0.0719783
0.0800172
0.0876898
0.0948982
0.10154
0.107509
0.112698
0.116998
0.120305
0.122519
0.123546
0.123306
0.121733
0.118778
0.114403
0.108594
0.101424
0.0930283
0.0825855
0.0687434
-0.0142236
-0.0280708
-0.0383088
-0.0463659
-0.0531472
-0.0585837
-0.0626611
-0.0654471
-0.0670141
-0.067434
-0.0667808
-0.0651289
-0.0625511
-0.0591174
-0.0548949
-0.0499471
-0.0443342
-0.0381131
-0.0313383
-0.024062
-0.0163352
-0.00820826
0.000268089
0.00904207
0.0180598
0.0272644
0.0365953
0.0459868
0.055368
0.0646616
0.0737836
0.0826428
0.0911408
0.0991722
0.106625
0.113383
0.119326
0.12433
0.128275
0.131045
0.13253
0.132631
0.131267
0.128374
0.123904
0.11783
0.110227
0.101238
0.0899636
0.0749286
-0.0235674
-0.0384363
-0.0493728
-0.0579173
-0.0650492
-0.0707005
-0.0748626
-0.077616
-0.0790466
-0.0792392
-0.0782801
-0.0762552
-0.0732478
-0.069337
-0.0645976
-0.0590993
-0.0529073
-0.0460823
-0.0386813
-0.0307582
-0.0223647
-0.0135512
-0.00436793
0.0051342
0.0149024
0.0248808
0.0350096
0.0452238
0.055452
0.0656159
0.0756289
0.0853962
0.0948137
0.103769
0.11214
0.119798
0.12661
0.132436
0.137138
0.14058
0.142631
0.143175
0.142107
0.139348
0.134834
0.128525
0.120494
0.110892
0.0987321
0.0824057
-0.0344385
-0.0504003
-0.0620723
-0.0711158
-0.0785914
-0.0844332
-0.0886405
-0.0913096
-0.0925422
-0.0924386
-0.0911002
-0.0886264
-0.0851127
-0.0806487
-0.0753179
-0.069197
-0.0623566
-0.0548613
-0.0467705
-0.0381397
-0.0290206
-0.0194633
-0.00951659
0.000770138
0.0113461
0.0221575
0.0331464
0.0442492
0.0553953
0.0665062
0.0774938
0.0882602
0.0986963
0.108682
0.118086
0.126768
0.134578
0.141359
0.146952
0.151199
0.153947
0.155052
0.154388
0.151852
0.147361
0.140858
0.132413
0.122181
0.109081
0.0913576
-0.0470078
-0.0641403
-0.0765863
-0.0861377
-0.0939439
-0.0999425
-0.104144
-0.106663
-0.107621
-0.107138
-0.105333
-0.10232
-0.0982106
-0.0931058
-0.087099
-0.0802749
-0.0727098
-0.0644723
-0.0556242
-0.0462218
-0.0363166
-0.0259575
-0.0151911
-0.00406412
0.00737567
0.0190777
0.0309872
0.0430432
0.0551773
0.0673119
0.0793588
0.0912177
0.102776
0.113905
0.124466
0.134305
0.143254
0.15114
0.157778
0.162985
0.166579
0.168388
0.168258
0.166056
0.161674
0.155035
0.1462
0.135327
0.121232
0.101998
-0.0614687
-0.0798586
-0.093119
-0.103183
-0.111298
-0.117408
-0.121537
-0.123824
-0.124413
-0.123448
-0.121069
-0.117412
-0.112601
-0.106754
-0.0999755
-0.0923577
-0.0839837
-0.074926
-0.0652485
-0.0550079
-0.0442547
-0.0330354
-0.0213938
-0.0093726
0.00298488
0.0156327
0.0285205
0.0415918
0.0547817
0.0680154
0.0812057
0.0942519
0.107038
0.11943
0.13128
0.142419
0.152665
0.161821
0.169678
0.176022
0.18064
0.183324
0.183884
0.182152
0.177989
0.171289
0.162102
0.150587
0.135442
0.114574
-0.0780416
-0.0977868
-0.111904
-0.122481
-0.130872
-0.137031
-0.141001
-0.14295
-0.143054
-0.141482
-0.138401
-0.133971
-0.128336
-0.12163
-0.113969
-0.105456
-0.0961798
-0.0862173
-0.0756338
-0.0644855
-0.0528213
-0.0406841
-0.0281134
-0.0151463
-0.00182062
0.0118241
0.025744
0.0398885
0.0541985
0.0686035
0.0830197
0.0973475
0.111469
0.125248
0.138524
0.15112
0.162833
0.173444
0.182716
0.190402
0.19625
0.20001
0.201449
0.200357
0.196552
0.189892
0.180409
0.168259
0.152011
0.129376
-0.0969791
-0.118192
-0.133212
-0.144294
-0.152914
-0.159038
-0.162737
-0.164215
-0.163685
-0.161352
-0.157415
-0.152059
-0.145455
-0.137753
-0.129084
-0.119561
-0.10928
-0.0983211
-0.0867504
-0.0746228
-0.061984
-0.0488722
-0.0353208
-0.0213602
-0.00702038
0.00766729
0.0226672
0.0379372
0.0534258
0.0690696
0.0847903
0.100492
0.116057
0.131347
0.146196
0.160413
0.173779
0.18605
0.196959
0.20622
0.213538
0.218613
0.22116
0.220914
0.217642
0.211154
0.201455
0.188693
0.171289
0.146743
-0.118573
-0.141387
-0.157357
-0.168926
-0.177706
-0.183685
-0.186967
-0.187804
-0.186456
-0.183171
-0.178188
-0.171725
-0.163979
-0.155123
-0.145302
-0.134641
-0.123242
-0.111188
-0.0985441
-0.0853636
-0.071687
-0.0575461
-0.0429665
-0.0279698
-0.0125761
0.00319342
0.0193139
0.0357538
0.0524721
0.069415
0.0865127
0.103675
0.12079
0.137718
0.154288
0.1703
0.185519
0.199675
0.212468
0.223572
0.232639
0.239313
0.243243
0.2441
0.241581
0.235437
0.225633
0.212299
0.19369
0.167069
-0.143165
-0.167738
-0.184711
-0.196735
-0.205578
-0.211262
-0.213936
-0.213914
-0.211516
-0.207045
-0.200785
-0.192997
-0.183907
-0.173712
-0.162576
-0.150634
-0.137993
-0.124737
-0.110931
-0.0966236
-0.0818477
-0.066627
-0.0509771
-0.0349084
-0.0184291
-0.00154766
0.0157243
0.0333687
0.0513578
0.0696507
0.0881892
0.106894
0.125658
0.144348
0.162791
0.18078
0.198064
0.21435
0.229305
0.242554
0.253695
0.262303
0.267951
0.270225
0.268738
0.263161
0.253402
0.239562
0.219702
0.190823
-0.171159
-0.197685
-0.215715
-0.22814
-0.236912
-0.242099
-0.243916
-0.242756
-0.239015
-0.233066
-0.22525
-0.215875
-0.205204
-0.19346
-0.180823
-0.16744
-0.153422
-0.138853
-0.123794
-0.108286
-0.0923526
-0.076007
-0.059252
-0.0420845
-0.0244981
-0.00648567
0.0119569
0.0308281
0.0501166
0.069798
0.0898294
0.110146
0.130653
0.151223
0.17169
0.191842
0.211416
0.230099
0.24752
0.263261
0.276851
0.28779
0.295557
0.299637
0.299535
0.294814
0.285304
0.271057
0.249908
0.21856
-0.20304
-0.23176
-0.250906
-0.263645
-0.272156
-0.276574
-0.277205
-0.274547
-0.269096
-0.261308
-0.251597
-0.240324
-0.227794
-0.214258
-0.199913
-0.184915
-0.169377
-0.153379
-0.136976
-0.120197
-0.103054
-0.085547
-0.0676622
-0.0493804
-0.0306777
-0.0115289
0.00808916
0.0281944
0.0487958
0.0698888
0.0914507
0.113435
0.135765
0.158327
0.180964
0.203465
0.225564
0.246928
0.267155
0.285774
0.302249
0.315988
0.326362
0.332729
0.334457
0.330969
0.321985
0.307478
0.28501
0.250946
-0.239405
-0.27062
-0.290939
-0.303858
-0.311839
-0.315119
-0.314129
-0.30951
-0.301883
-0.291812
-0.279795
-0.266257
-0.251548
-0.235945
-0.219664
-0.202864
-0.185656
-0.168113
-0.150277
-0.132164
-0.11377
-0.0950756
-0.0760492
-0.0566518
-0.036839
-0.0165646
0.00421681
0.025546
0.0474554
0.0699649
0.0930762
0.116767
0.140984
0.165635
0.190578
0.215615
0.240479
0.264826
0.288226
0.31016
0.33002
0.347113
0.360683
0.369935
0.374062
0.372302
0.364218
0.349663
0.325866
0.288788
-0.280994
-0.315089
-0.336631
-0.349524
-0.356592
-0.358228
-0.355042
-0.347862
-0.337474
-0.324572
-0.309757
-0.293523
-0.276267
-0.258294
-0.239829
-0.22103
-0.202
-0.182801
-0.163453
-0.143955
-0.124281
-0.104389
-0.0842263
-0.0637296
-0.0428314
-0.0214611
0.000451759
0.022974
0.0461656
0.0700746
0.0947325
0.120147
0.146295
0.173113
0.200485
0.228233
0.256102
0.283747
0.310718
0.336454
0.360272
0.381373
0.398854
0.411735
0.418987
0.419606
0.412935
0.398644
0.373531
0.333077
-0.328755
-0.366225
-0.389018
-0.40156
-0.407166
-0.406462
-0.400312
-0.389797
-0.375911
-0.359511
-0.341312
-0.321885
-0.301671
-0.280994
-0.260084
-0.239089
-0.218094
-0.197136
-0.176214
-0.155297
-0.134334
-0.113256
-0.091982
-0.0704237
-0.0484864
-0.0260721
-0.00308239
0.0205789
0.0450023
0.0702689
0.0964444
0.123573
0.15167
0.180708
0.21061
0.241229
0.272337
0.303601
0.334566
0.364639
0.39307
0.418948
0.441206
0.458644
0.469958
0.473823
0.469271
0.455699
0.429335
0.385054
-0.383924
-0.425406
-0.449427
-0.461113
-0.46446
-0.460452
-0.450314
-0.435463
-0.41716
-0.396452
-0.374181
-0.350995
-0.327371
-0.303643
-0.280025
-0.256644
-0.233555
-0.21076
-0.188224
-0.165882
-0.143647
-0.121419
-0.0990858
-0.0765293
-0.0536244
-0.0302433
-0.00625703
0.0184628
0.0440408
0.0705943
0.0982286
0.127031
0.157061
0.188341
0.220843
0.254469
0.289033
0.324234
0.359635
0.394627
0.428409
0.459962
0.488044
0.511202
0.527789
0.536064
0.534621
0.52244
0.494971
0.446295
-0.448155
-0.494475
-0.519594
-0.529621
-0.529542
-0.520888
-0.505393
-0.48492
-0.461058
-0.435074
-0.40794
-0.380371
-0.35286
-0.325725
-0.299152
-0.273221
-0.247941
-0.223265
-0.199112
-0.17537
-0.151915
-0.128606
-0.105298
-0.081836
-0.058064
-0.0338219
-0.00894758
0.0167213
0.0433461
0.0710839
0.100084
0.130482
0.162393
0.195897
0.231029
0.267758
0.305963
0.345404
0.385686
0.426218
0.466173
0.504442
0.539611
0.569943
0.593378
0.607635
0.610701
0.600926
0.572649
0.518858
-0.523731
-0.575947
-0.601814
-0.608899
-0.603671
-0.588492
-0.565814
-0.538075
-0.507257
-0.474861
-0.441979
-0.409358
-0.377478
-0.346608
-0.316868
-0.288269
-0.260751
-0.2342
-0.208473
-0.183407
-0.158825
-0.134545
-0.11038
-0.0861402
-0.061634
-0.0366675
-0.0110448
0.0154321
0.042963
0.0717472
0.101982
0.133857
0.167548
0.203206
0.240946
0.280823
0.322807
0.36675
0.412342
0.459053
0.506075
0.552253
0.596016
0.635335
0.667671
0.690055
0.69964
0.693825
0.665316
0.6055
-0.613902
-0.673337
-0.699163
-0.701231
-0.688285
-0.663951
-0.631664
-0.594584
-0.555132
-0.51503
-0.475443
-0.437099
-0.400402
-0.365524
-0.332477
-0.301168
-0.271436
-0.243085
-0.215893
-0.189632
-0.164069
-0.138972
-0.114112
-0.0892589
-0.0641864
-0.0386661
-0.0124677
0.0146427
0.0429035
0.0725578
0.103853
0.137037
0.172354
0.210037
0.250294
0.293289
0.339116
0.387758
0.439038
0.492554
0.547586
0.603
0.657136
0.707689
0.751598
0.785049
0.804068
0.804642
0.776995
0.71004
-0.723486
-0.791678
-0.8158
-0.809456
-0.784952
-0.747787
-0.702699
-0.653705
-0.60366
-0.554438
-0.507179
-0.462494
-0.420626
-0.381577
-0.345194
-0.311237
-0.279418
-0.249429
-0.220958
-0.193702
-0.167362
-0.141656
-0.116306
-0.091046
-0.0656124
-0.0397437
-0.0131764
0.0143577
0.0431351
0.073442
0.105576
0.139847
0.176573
0.216076
0.258674
0.304663
0.354289
0.407717
0.464969
0.525846
0.589823
0.655905
0.722455
0.786987
0.845927
0.894481
0.927209
0.938026
0.913326
0.837998
-0.859951
-0.938335
-0.957362
-0.937014
-0.895196
-0.840102
-0.778096
-0.71409
-0.65127
-0.591483
-0.535672
-0.484176
-0.436956
-0.393746
-0.354162
-0.317767
-0.284112
-0.252758
-0.223288
-0.195312
-0.168467
-0.142412
-0.116828
-0.091408
-0.065856
-0.0398794
-0.0131847
0.0145281
0.0435704
0.0742692
0.106972
0.142048
0.179892
0.220924
0.26558
0.314309
0.367547
0.425687
0.489024
0.557669
0.631429
0.709623
0.790841
0.872617
0.951
1.02018
1.07291
1.10017
1.08242
0.997741
-1.0355
-1.12431
-1.13143
-1.08784
-1.02013
-0.940155
-0.856066
-0.773499
-0.695643
-0.62399
-0.558994
-0.500502
-0.448024
-0.400917
-0.358487
-0.320051
-0.284966
-0.252646
-0.222558
-0.194224
-0.167212
-0.141128
-0.115611
-0.0903188
-0.0649269
-0.0391166
-0.0125687
0.0150434
0.0440611
0.0748473
0.107794
0.143329
0.181921
0.224086
0.270391
0.321451
0.377919
0.440467
0.509742
0.586288
0.670421
0.76202
0.860223
0.962963
1.06628
1.16354
1.24554
1.2993
1.29618
1.20269
-1.2713
-1.36626
-1.34782
-1.26584
-1.15967
-1.04561
-0.933283
-0.82841
-0.733497
-0.649106
-0.574778
-0.509565
-0.452333
-0.401935
-0.357292
-0.317433
-0.281502
-0.248752
-0.218536
-0.19029
-0.163516
-0.137776
-0.112669
-0.0878297
-0.0629086
-0.0375681
-0.0114707
0.0157299
0.0443976
0.074924
0.107738
0.143317
0.182198
0.22499
0.272385
0.325173
0.384243
0.450585
0.525273
0.609411
0.704032
0.809897
0.927156
1.05477
1.18951
1.32467
1.44938
1.54592
1.5724
1.4758
-1.60625
-1.68947
-1.61805
-1.47315
-1.31075
-1.15113
-1.00394
-0.873465
-0.760295
-0.663189
-0.580201
-0.509235
-0.448309
-0.395658
-0.349767
-0.309356
-0.273349
-0.240849
-0.211101
-0.183467
-0.157398
-0.132418
-0.108105
-0.0840717
-0.059958
-0.0354154
-0.0100969
0.0163539
0.0443141
0.0741931
0.106446
0.141586
0.180207
0.222994
0.270757
0.324446
0.385187
0.454309
0.533361
0.62412
0.728543
0.848643
0.986191
1.1421
1.31525
1.50046
1.68681
1.8522
1.93775
1.8587
-2.11232
-2.13155
-1.9535
-1.70713
-1.46462
-1.24656
-1.05875
-0.901032
-0.770151
-0.661882
-0.572132
-0.497317
-0.434446
-0.381084
-0.335271
-0.295433
-0.260304
-0.228861
-0.200269
-0.173836
-0.148984
-0.125218
-0.102104
-0.0792513
-0.0562984
-0.0328978
-0.008704
0.0166386
0.0435081
0.0723187
0.103536
0.137693
0.175417
0.217449
0.264683
0.318206
0.37935
0.449759
0.531463
0.626963
0.7393
0.872087
1.0294
1.21535
1.43293
1.68183
1.95509
2.23011
2.43137
2.42692
-2.92019
-2.74258
-2.36177
-1.95822
-1.60578
-1.3169
-1.08562
-0.902255
-0.756947
-0.64115
-0.548025
-0.472286
-0.409907
-0.357826
-0.313706
-0.275752
-0.242568
-0.213056
-0.186342
-0.161719
-0.138601
-0.116497
-0.0949806
-0.0736724
-0.0522229
-0.0302981
-0.00756595
0.016316
0.0417136
0.0690303
0.0987243
0.131328
0.167472
0.207921
0.253612
0.305712
0.365697
0.435452
0.517414
0.614757
0.731635
0.873473
1.04727
1.2617
1.52682
1.8525
2.24398
2.68728
3.10419
3.31463
-4.32652
-3.56291
-2.81857
-2.19297
-1.70367
-1.33831
-1.06824
-0.866862
-0.714601
-0.597628
-0.506207
-0.433492
-0.374638
-0.326165
-0.285533
-0.250857
-0.220711
-0.194001
-0.169869
-0.14763
-0.126728
-0.106697
-0.0871404
-0.0677049
-0.0480674
-0.0279197
-0.00695568
0.0151412
0.0387108
0.0641303
0.0918307
0.122318
0.156197
0.194211
0.237284
0.286588
0.343636
0.410418
0.489597
0.584803
0.701069
0.845486
1.02812
1.26325
1.57109
1.97933
2.51778
3.19705
3.99623
4.82651
-7.16108
-4.56161
-3.14281
-2.25714
-1.6506
-1.24077
-0.96223
-0.766752
-0.624979
-0.519222
-0.438292
-0.374889
-0.324125
-0.282636
-0.248036
-0.218592
-0.193014
-0.170325
-0.149764
-0.130732
-0.112741
-0.0953892
-0.0783313
-0.061264
-0.0439091
-0.0260013
-0.0072759
0.0125403
0.0337429
0.0566612
0.0816733
0.109225
0.139854
0.17422
0.213152
0.257711
0.309281
0.369707
0.441513
0.528236
0.634986
0.769372
0.943041
1.17437
1.49374
1.95145
2.61699
3.57498
5.07989
7.79833
-12.0294
-5.64441
-2.97861
-1.88064
-1.28476
-0.93137
-0.713055
-0.568454
-0.466338
-0.390891
-0.333252
-0.288007
-0.251646
-0.221783
-0.196724
-0.175233
-0.156382
-0.139462
-0.123919
-0.109313
-0.0952846
-0.0815372
-0.0678154
-0.053893
-0.0395622
-0.0246232
-0.00887679
0.00788646
0.0258924
0.0453942
0.066683
0.0901017
0.116063
0.14507
0.177753
0.214909
0.257569
0.307099
0.365347
0.434902
0.519531
0.624995
0.760632
0.94287
1.2037
1.60697
2.26924
3.46213
6.24486
12.7553
)
;

boundaryField
{
    movingWall
    {
        type            zeroGradient;
    }
    fixedWalls
    {
        type            zeroGradient;
    }
    frontAndBack
    {
        type            empty;
    }
}


// ************************************************************************* //
