/*--------------------------------*- C++ -*----------------------------------*\
  =========                 |
  \\      /  F ield         | OpenFOAM: The Open Source CFD Toolbox
   \\    /   O peration     | Website:  https://openfoam.org
    \\  /    A nd           | Version:  7
     \\/     M anipulation  |
\*---------------------------------------------------------------------------*/
FoamFile
{
    version     2.0;
    format      ascii;
    class       volScalarField;
    location    "0.031";
    object      p;
}
// * * * * * * * * * * * * * * * * * * * * * * * * * * * * * * * * * * * * * //

dimensions      [0 2 -2 0 0 0 0];

internalField   nonuniform List<scalar> 
2500
(
-6.1882e-06
-0.00053605
-0.00197179
-0.00401063
-0.00634891
-0.00868213
-0.0108397
-0.0126683
-0.014056
-0.0149248
-0.0152226
-0.0149188
-0.0139995
-0.0124656
-0.0103299
-0.00761523
-0.00435264
-0.000580461
0.0036569
0.00830991
0.0133247
0.0186437
0.0242062
0.0299491
0.0358067
0.0417121
0.047597
0.0533927
0.0590304
0.0644419
0.0695608
0.0743228
0.0786669
0.0825365
0.085881
0.0886566
0.090828
0.0923703
0.0932706
0.09353
0.0931664
0.0922168
0.0907409
0.0888254
0.0865909
0.0841973
0.081835
0.0797905
0.078377
0.0778877
0.000496231
-2.36635e-05
-0.00118545
-0.00278367
-0.00459147
-0.00641268
-0.00809379
-0.00950801
-0.0105572
-0.0111685
-0.0112906
-0.0108909
-0.009952
-0.00847025
-0.00645319
-0.00391804
-0.000890241
0.00259764
0.00650692
0.0107937
0.0154098
0.0203031
0.0254184
0.0306979
0.0360816
0.0415082
0.0469149
0.052239
0.0574176
0.0623889
0.0670926
0.0714711
0.0754702
0.0790401
0.0821368
0.0847232
0.0867705
0.0882598
0.0891834
0.0895468
0.0893707
0.088693
0.0875713
0.0860855
0.084341
0.0824711
0.0806357
0.0790291
0.0778844
0.0773985
0.00191611
0.00112628
-4.08645e-05
-0.00148126
-0.00305377
-0.00461147
-0.00602877
-0.00720145
-0.00804558
-0.00849639
-0.00850691
-0.00804589
-0.00709578
-0.00565109
-0.00371689
-0.00130728
0.00155579
0.00484349
0.00852104
0.0125485
0.0168817
0.0214726
0.02627
0.0312202
0.0362674
0.0413541
0.0464222
0.0514128
0.0562677
0.0609294
0.0653422
0.069453
0.0732121
0.0765744
0.0795001
0.0819563
0.0839182
0.0853698
0.0863062
0.0867344
0.0866749
0.0861637
0.0852535
0.0840152
0.0825395
0.0809365
0.0793365
0.0778884
0.0767384
0.0759866
0.00396591
0.00272776
0.00137425
-8.95997e-05
-0.0016054
-0.00305857
-0.0043481
-0.00539036
-0.00611606
-0.00647017
-0.00641198
-0.0059139
-0.00496003
-0.00354516
-0.00167355
0.000642206
0.00338223
0.00652018
0.010024
0.0138566
0.017977
0.02234
0.0268979
0.0316001
0.0363939
0.0412254
0.0460395
0.0507808
0.0553944
0.0598262
0.0640238
0.0679374
0.0715205
0.074731
0.0775321
0.0798935
0.0817923
0.0832142
0.0841549
0.0846209
0.084631
0.0842173
0.083426
0.0823182
0.0809696
0.07947
0.0779254
0.0764531
0.0751176
0.0739272
0.00636537
0.00457432
0.00293909
0.00135402
-0.000202216
-0.00164046
-0.00288054
-0.00385775
-0.00451705
-0.0048136
-0.00471378
-0.00419467
-0.00324318
-0.0018554
-3.58784e-05
0.0022034
0.00484377
0.00786056
0.0112238
0.0148986
0.0188464
0.0230248
0.0273886
0.0318899
0.0364788
0.0411042
0.0457138
0.0502549
0.0546754
0.0589238
0.0629504
0.066708
0.0701524
0.0732437
0.0759472
0.0782339
0.080082
0.0814778
0.0824165
0.0829032
0.0829538
0.0825956
0.0818678
0.0808214
0.0795183
0.0780296
0.076441
0.0748457
0.0732314
0.0715053
0.00885526
0.0064948
0.00452517
0.002751
0.00108203
-0.000411338
-0.0016656
-0.00263255
-0.00327016
-0.00354338
-0.00342588
-0.00289989
-0.0019558
-0.000591839
0.00118642
0.0033668
0.00593109
0.0088556
0.0121117
0.0156663
0.0194825
0.0235201
0.0277359
0.0320843
0.0365177
0.040987
0.0454422
0.0498329
0.054109
0.0582211
0.0621214
0.0657645
0.0691078
0.0721128
0.0747457
0.0769783
0.0787889
0.0801633
0.0810955
0.0815884
0.0816542
0.0813152
0.0806035
0.0795608
0.0782363
0.0766855
0.0749783
0.0731901
0.0712416
0.0689506
0.0112902
0.00835585
0.00602157
0.00401179
0.00217701
0.000574709
-0.000744284
-0.00174553
-0.00239842
-0.00267686
-0.00256152
-0.00203995
-0.00110638
0.000238335
0.00198697
0.0041265
0.00663857
0.00949985
0.0126824
0.0161544
0.01988
0.0238207
0.0279348
0.0321783
0.0365054
0.0408687
0.0452198
0.04951
0.0536905
0.0577134
0.0615322
0.0651024
0.0683824
0.0713342
0.0739242
0.0761241
0.0779115
0.0792711
0.0801949
0.0806828
0.0807434
0.0803937
0.0796591
0.0785728
0.0771735
0.0755039
0.0736222
0.0715924
0.0692779
0.0664181
0.0135441
0.0100467
0.00733369
0.00505878
0.00302172
0.0012718
-0.00014941
-0.00121867
-0.00191505
-0.00222042
-0.00212194
-0.00161236
-0.000689863
0.000641723
0.00237313
0.00449004
0.00697341
0.00979974
0.0129414
0.016367
0.0200416
0.0239276
0.0279845
0.0321694
0.0364377
0.0407431
0.0450385
0.049276
0.0534079
0.0573871
0.0611676
0.0647054
0.067959
0.0708902
0.0734649
0.0756541
0.0774341
0.0787875
0.079704
0.0801804
0.0802211
0.0798382
0.0790509
0.0778852
0.0763709
0.0745408
0.0724452
0.0701414
0.0674445
0.0640254
0.0155236
0.0114779
0.00838039
0.00582168
0.00355748
0.00163248
8.18387e-05
-0.00108016
-0.00184066
-0.00218845
-0.00211661
-0.00162279
-0.000709151
0.000617396
0.00234525
0.00445844
0.00693684
0.00975637
0.0128892
0.0163039
0.0199662
0.0238387
0.0278816
0.0320529
0.0363085
0.040603
0.0448897
0.0491213
0.0532507
0.0572307
0.0610155
0.0645609
0.0678247
0.0707682
0.0733561
0.0755579
0.0773478
0.0787065
0.0796204
0.0800831
0.0800948
0.0796629
0.0788012
0.0775294
0.0758705
0.0738494
0.0715118
0.0689122
0.065824
0.0618576
0.0171578
0.0125762
0.0090914
0.00623642
0.00372773
0.00160811
-9.14433e-05
-0.00136375
-0.00220265
-0.00260293
-0.00256295
-0.00208497
-0.00117502
0.000156821
0.00189646
0.004026
0.00652391
0.00936516
0.0125213
0.0159607
0.0196488
0.0235486
0.0276204
0.0318224
0.0361108
0.0404406
0.0447651
0.0490373
0.0532096
0.0572349
0.0610666
0.0646598
0.0679713
0.070961
0.0735919
0.0758313
0.0776513
0.0790294
0.0799492
0.0804004
0.0803793
0.0798887
0.0789375
0.0775405
0.0757148
0.0734802
0.0708797
0.067968
0.064482
0.0599767
0.0183906
0.0132798
0.00940469
0.00624406
0.0034782
0.00114995
-0.000712191
-0.00210668
-0.00303297
-0.00349099
-0.00348393
-0.00301832
-0.00210395
-0.000754064
0.0010146
0.00318202
0.00572501
0.00861725
0.0118294
0.0153291
0.0190815
0.0230492
0.0271924
0.0314693
0.0358359
0.040247
0.0446559
0.0490149
0.053276
0.0573913
0.0613132
0.0649954
0.0683932
0.0714645
0.0741701
0.0764747
0.0783475
0.0797629
0.0807008
0.0811472
0.0810943
0.0805405
0.0794907
0.0779551
0.0759467
0.0734812
0.0706012
0.0673639
0.0634726
0.05843
0.0191743
0.0135339
0.00926355
0.00578891
0.00275588
0.000208698
-0.00182537
-0.00334941
-0.00436761
-0.00488449
-0.00490758
-0.00444747
-0.00351761
-0.00213443
-0.000317404
0.00191115
0.00452612
0.00749967
0.0108012
0.0143976
0.018253
0.0223296
0.0265871
0.0309831
0.0354735
0.0400123
0.0445522
0.0490449
0.0534413
0.0576922
0.0617486
0.0655624
0.0690869
0.0722773
0.0750918
0.0774921
0.0794439
0.080918
0.0818903
0.0823429
0.0822639
0.0816476
0.0804949
0.0788122
0.0766094
0.0738992
0.0707256
0.0671495
0.0628422
0.0572554
0.0194655
0.0132879
0.00861402
0.00481667
0.00150775
-0.00126621
-0.00347838
-0.00513572
-0.00624663
-0.00681975
-0.00686672
-0.00640201
-0.00544265
-0.00400832
-0.00212135
0.000193491
0.00290898
0.0059955
0.00942102
0.0131511
0.0171491
0.0213761
0.0257912
0.0303513
0.0350115
0.0397249
0.0444433
0.0491173
0.0536965
0.0581301
0.062367
0.066357
0.0700507
0.0734004
0.0763611
0.0788908
0.0809514
0.0825095
0.083537
0.0840113
0.0839165
0.0832428
0.0819873
0.0801532
0.0777476
0.0747814
0.0713005
0.0673714
0.0626335
0.0564864
0.019222
0.0124919
0.00740273
0.00327285
-0.00032033
-0.00332742
-0.00572147
-0.00751296
-0.00871413
-0.00933757
-0.00939885
-0.00891626
-0.00791047
-0.00640447
-0.00442357
-0.00199519
0.000851149
0.00408386
0.00766921
0.0115713
0.0157523
0.0201723
0.0247891
0.0295589
0.0344357
0.0393716
0.0443171
0.0492214
0.0540324
0.0586973
0.0631628
0.0673759
0.0712841
0.0748365
0.0779841
0.0806808
0.0828842
0.0845561
0.0856639
0.0861803
0.0860847
0.0853632
0.084009
0.0820225
0.0794084
0.0761761
0.0723747
0.0680764
0.0628882
0.0561557
0.0184
0.0110951
0.00557493
0.00110109
-0.00278492
-0.00603053
-0.0086084
-0.0105324
-0.0118185
-0.0124832
-0.0125461
-0.0120292
-0.0109571
-0.00935613
-0.0072548
-0.00468336
-0.00167381
0.00174006
0.00552265
0.00963645
0.0140421
0.0186985
0.0235623
0.0285885
0.0337298
0.0389372
0.0441597
0.0493448
0.0544384
0.0593855
0.0641301
0.068616
0.0727875
0.0765895
0.0799687
0.0828744
0.0852591
0.0870796
0.0882978
0.0888815
0.088805
0.0880498
0.0866053
0.0844688
0.0816427
0.0781353
0.0739991
0.0693132
0.0636499
0.0562975
0.0169523
0.00904334
0.0030726
-0.00175842
-0.0059463
-0.00943515
-0.0121972
-0.0142497
-0.0156127
-0.0163067
-0.0163551
-0.0157845
-0.014623
-0.0129009
-0.01065
-0.00790348
-0.00469617
-0.0010642
0.00295476
0.00732141
0.0119949
0.0169324
0.0220896
0.02742
0.0328752
0.0384045
0.0439554
0.0494736
0.0549028
0.0601854
0.0652624
0.0700744
0.0745613
0.0786639
0.082324
0.0854856
0.0880955
0.0901047
0.0914691
0.0921508
0.0921184
0.0913485
0.0898262
0.0875453
0.0845059
0.0807153
0.0762295
0.0711349
0.0649666
0.0569508
0.0148263
0.00627741
-0.000167153
-0.00537036
-0.00986969
-0.0136059
-0.0165509
-0.0187258
-0.0201549
-0.0208628
-0.0208777
-0.0202304
-0.0189533
-0.0170807
-0.0146481
-0.0116919
-0.00824982
-0.00436066
-6.42711e-05
0.00459812
0.0095839
0.0148489
0.0203473
0.0260312
0.0318507
0.0377539
0.0436866
0.0495922
0.0554123
0.0610864
0.0665524
0.071747
0.0766059
0.0810648
0.0850602
0.08853
0.0914147
0.0936588
0.0952114
0.0960279
0.0960706
0.0953103
0.0937272
0.0913113
0.0880598
0.0839786
0.0791276
0.0736009
0.0668924
0.0581611
0.0119622
0.00273148
-0.00421367
-0.00980575
-0.0146265
-0.0186135
-0.0217385
-0.0240272
-0.0255084
-0.0262118
-0.0261704
-0.0254199
-0.0239974
-0.0219416
-0.0192919
-0.0160885
-0.0123721
-0.00818424
-0.00356727
0.0014356
0.00677999
0.0124202
0.0183089
0.0243969
0.030633
0.0369637
0.0433331
0.0496826
0.0559514
0.062076
0.0679911
0.0736289
0.0789208
0.0837969
0.0881876
0.0920241
0.09524
0.097772
0.0995617
0.100557
0.100712
0.0999917
0.0983701
0.0958328
0.0923733
0.0879956
0.0827634
0.0767787
0.0694903
0.0599825
0.0082918
-0.00166845
-0.00914419
-0.0151432
-0.0202954
-0.0245355
-0.0278358
-0.0302267
-0.0317428
-0.0324193
-0.0322949
-0.0314106
-0.0298091
-0.0275336
-0.024628
-0.0211365
-0.0171032
-0.0125727
-0.00758969
-0.00219961
0.00355142
0.00961612
0.0159458
0.0224901
0.0291964
0.0360098
0.0428728
0.0497249
0.0565027
0.06314
0.0695677
0.0757138
0.0815046
0.0868642
0.0917165
0.0959852
0.0995958
0.102477
0.10456
0.105785
0.106098
0.105455
0.103824
0.101184
0.097524
0.0928458
0.0872165
0.0807462
0.0728334
0.0624803
0.0037369
-0.00700608
-0.0150453
-0.0214703
-0.0269638
-0.0314579
-0.0349258
-0.0374043
-0.0389341
-0.039557
-0.0393182
-0.0382651
-0.0364461
-0.0339102
-0.030706
-0.0268819
-0.0224861
-0.0175659
-0.0121691
-0.0063429
-0.000135391
0.00640474
0.0132276
0.0202816
0.0275131
0.034866
0.0422813
0.0496967
0.0570466
0.0642618
0.0712694
0.0779934
0.0843541
0.0902699
0.0956568
0.100431
0.104508
0.107807
0.11025
0.111766
0.11229
0.111771
0.110166
0.107448
0.1036
0.0986201
0.0925786
0.0855938
0.077008
0.0657324
-0.00179221
-0.0133763
-0.0220145
-0.0288853
-0.0347291
-0.0394759
-0.0431007
-0.0456476
-0.0471651
-0.0477025
-0.0473127
-0.0460502
-0.0439704
-0.0411283
-0.0375782
-0.0333731
-0.0285652
-0.0232055
-0.0173442
-0.0110308
-0.0043151
0.00275297
0.0101224
0.0177409
0.025554
0.0335045
0.0415324
0.0495739
0.0575612
0.0654225
0.0730814
0.0804571
0.0874647
0.0940153
0.100018
0.105378
0.110002
0.113799
0.116678
0.118555
0.119356
0.119016
0.117482
0.114718
0.110701
0.105422
0.0989551
0.091426
0.0821149
0.0698324
-0.00839822
-0.020887
-0.030162
-0.0374985
-0.0437
-0.0486952
-0.052462
-0.0550531
-0.0565263
-0.0569401
-0.056356
-0.0548373
-0.0524471
-0.0492474
-0.0452987
-0.0406595
-0.0353861
-0.0295333
-0.023154
-0.0163
-0.00902244
-0.0013724
0.00659844
0.0148372
0.023289
0.0318964
0.0405985
0.0493305
0.0580229
0.0666015
0.0749865
0.0830926
0.0908292
0.0981005
0.104806
0.110843
0.116106
0.12049
0.123893
0.126215
0.127369
0.127275
0.125868
0.1231
0.11894
0.113371
0.106467
0.0983648
0.0882729
0.074891
-0.0161985
-0.0296608
-0.0396124
-0.047434
-0.0539984
-0.0592336
-0.0631219
-0.0657265
-0.0671161
-0.0673603
-0.066531
-0.0647015
-0.0619439
-0.0583285
-0.0539226
-0.0487905
-0.0429937
-0.0365904
-0.0296365
-0.0221858
-0.0142909
-0.00600342
0.00262457
0.0115402
0.0206888
0.0300129
0.0394517
0.0489397
0.0584066
0.067776
0.0769652
0.0858848
0.0944384
0.102523
0.110029
0.116843
0.122847
0.127921
0.131948
0.134813
0.13641
0.136642
0.135431
0.132714
0.128446
0.122601
0.115256
0.106551
0.0956205
0.0810397
-0.0253269
-0.0398368
-0.0505068
-0.0588319
-0.0657609
-0.0712225
-0.0752046
-0.0777835
-0.0790412
-0.0790602
-0.0779252
-0.075721
-0.0725304
-0.068433
-0.0635041
-0.0578144
-0.0514306
-0.0444151
-0.0368266
-0.0287206
-0.0201508
-0.0111692
-0.0018276
0.00782184
0.0177253
0.0278261
0.0380643
0.0483747
0.0586865
0.0689222
0.0789968
0.0888169
0.0982808
0.107278
0.11569
0.123391
0.13025
0.136131
0.140898
0.144418
0.146565
0.147223
0.146292
0.143693
0.139365
0.13327
0.125482
0.11615
0.10432
0.0884332
-0.0359361
-0.0515739
-0.0630055
-0.0718506
-0.0791414
-0.0848084
-0.0888476
-0.0913509
-0.0924168
-0.0921433
-0.0906302
-0.0879761
-0.0842764
-0.0796213
-0.074095
-0.0677756
-0.0607355
-0.0530411
-0.0447539
-0.0359314
-0.0266275
-0.016894
-0.00678186
0.00365822
0.0143741
0.0253112
0.036411
0.0476097
0.0588372
0.0700158
0.0810589
0.0918702
0.102343
0.112359
0.121791
0.130501
0.138341
0.14516
0.150801
0.155108
0.157932
0.159132
0.158585
0.156189
0.151864
0.145555
0.137333
0.127352
0.114561
0.0972531
-0.0481999
-0.0650529
-0.0772911
-0.0866698
-0.0943131
-0.100155
-0.104203
-0.106567
-0.107367
-0.106719
-0.104741
-0.101548
-0.0972501
-0.09195
-0.0857421
-0.0787125
-0.0709395
-0.0624942
-0.0534405
-0.0438371
-0.0337381
-0.0231944
-0.012255
-0.000968148
0.0106167
0.022448
0.03447
0.0466218
0.0588352
0.0710333
0.0831293
0.0950248
0.106609
0.117757
0.128332
0.138182
0.147146
0.15505
0.161716
0.166962
0.170611
0.172494
0.172457
0.170372
0.166132
0.159663
0.151025
0.140378
0.126564
0.107712
-0.0623168
-0.0804807
-0.0935722
-0.103494
-0.111472
-0.117447
-0.121439
-0.123584
-0.124024
-0.1229
-0.120353
-0.116515
-0.111515
-0.10547
-0.0984842
-0.090654
-0.0820641
-0.0727895
-0.062897
-0.0524458
-0.0414893
-0.0300765
-0.0182537
-0.00606564
0.00644248
0.0192234
0.0322259
0.045393
0.0586602
0.0719532
0.0851863
0.0982605
0.111062
0.12346
0.135309
0.146444
0.156686
0.165841
0.173705
0.180067
0.184716
0.187448
0.188076
0.186435
0.182386
0.175827
0.166807
0.155486
0.140588
0.120059
-0.078514
-0.0980955
-0.112089
-0.122558
-0.130841
-0.136889
-0.140741
-0.142564
-0.142529
-0.140807
-0.137562
-0.132954
-0.127129
-0.120221
-0.112348
-0.103616
-0.0941161
-0.0839275
-0.0731192
-0.0617503
-0.0498727
-0.0375325
-0.0247718
-0.0116304
0.00185202
0.0156343
0.0296713
0.0439122
0.0582976
0.072758
0.0872107
0.101558
0.115684
0.129456
0.142717
0.155291
0.166982
0.177572
0.186829
0.19451
0.200364
0.204147
0.205626
0.204594
0.200872
0.194319
0.184969
0.172977
0.156932
0.134585
-0.0970527
-0.118172
-0.133117
-0.14413
-0.152673
-0.158714
-0.162317
-0.163686
-0.163031
-0.160556
-0.156461
-0.150931
-0.144137
-0.136231
-0.127345
-0.117597
-0.107084
-0.0958894
-0.0840837
-0.0717249
-0.0588621
-0.0455372
-0.0317865
-0.0176434
-0.00314005
0.0116901
0.0268102
0.0421774
0.0577401
0.0734355
0.0891867
0.104899
0.120459
0.135729
0.150547
0.164726
0.178051
0.190281
0.201153
0.210384
0.217683
0.222754
0.225311
0.225094
0.221871
0.215453
0.205848
0.193201
0.175953
0.151631
-0.118235
-0.141032
-0.156982
-0.168522
-0.177261
-0.183185
-0.186394
-0.187141
-0.185683
-0.182268
-0.177134
-0.170502
-0.162567
-0.153505
-0.143464
-0.132571
-0.120932
-0.108632
-0.0957431
-0.0823203
-0.0684085
-0.0540436
-0.0392547
-0.0240665
-0.00850185
0.00741582
0.0236601
0.0401986
0.0569901
0.0739814
0.0911038
0.10827
0.125368
0.142263
0.158788
0.174746
0.189905
0.204
0.216734
0.227784
0.236807
0.243448
0.247359
0.248211
0.245705
0.239592
0.229838
0.216573
0.198065
0.171598
-0.142415
-0.167053
-0.184062
-0.1961
-0.204939
-0.210599
-0.213226
-0.213135
-0.210643
-0.206054
-0.199654
-0.191701
-0.182425
-0.172024
-0.160664
-0.148483
-0.135594
-0.122083
-0.108021
-0.0934592
-0.0784362
-0.0629799
-0.0471097
-0.0308398
-0.0141814
0.00285463
0.0202547
0.0379997
0.0560617
0.0744001
0.0929581
0.111658
0.130397
0.149042
0.167426
0.185344
0.20255
0.218756
0.233631
0.246804
0.257875
0.266423
0.27202
0.274256
0.272745
0.267156
0.257402
0.24358
0.223762
0.194959
-0.17001
-0.196685
-0.21481
-0.227294
-0.2361
-0.241294
-0.243091
-0.241884
-0.238069
-0.232017
-0.224071
-0.214538
-0.203684
-0.191733
-0.17887
-0.165242
-0.150967
-0.136134
-0.120807
-0.105032
-0.0888388
-0.0722449
-0.0552579
-0.0378785
-0.0201038
-0.00192966
0.0166461
0.0356207
0.0549824
0.0747071
0.0947534
0.115058
0.13553
0.156044
0.176439
0.196505
0.215985
0.234568
0.25189
0.267532
0.281029
0.291881
0.299569
0.303577
0.303413
0.298638
0.289085
0.274805
0.253633
0.222278
-0.201521
-0.230473
-0.249773
-0.262616
-0.271199
-0.275658
-0.276297
-0.273616
-0.26811
-0.260236
-0.250407
-0.238985
-0.226276
-0.212534
-0.19796
-0.182711
-0.166908
-0.150634
-0.13395
-0.116891
-0.0994753
-0.0817061
-0.0635764
-0.045071
-0.02617
-0.00685128
0.0129059
0.0331182
0.0537938
0.0749286
0.0965014
0.118468
0.140753
0.163249
0.1858
0.208202
0.230192
0.25144
0.271548
0.290049
0.306409
0.320036
0.330303
0.336567
0.338197
0.334614
0.325538
0.310943
0.288388
0.254228
-0.237558
-0.269088
-0.289617
-0.302684
-0.310776
-0.31413
-0.313178
-0.308561
-0.300901
-0.290762
-0.27864
-0.264962
-0.250079
-0.234272
-0.217758
-0.200701
-0.183218
-0.165388
-0.147258
-0.128851
-0.110169
-0.0911975
-0.0719121
-0.0522783
-0.032256
-0.0118025
0.00912504
0.0305656
0.0525512
0.0751018
0.0982208
0.121888
0.146053
0.170627
0.195474
0.220398
0.245138
0.269353
0.292618
0.314417
0.334142
0.351102
0.36454
0.373661
0.377655
0.375759
0.367537
0.352841
0.328889
0.291625
-0.278879
-0.313365
-0.335172
-0.348253
-0.355469
-0.357212
-0.354094
-0.346943
-0.336545
-0.323594
-0.308689
-0.292326
-0.274902
-0.256725
-0.238023
-0.218961
-0.199647
-0.180147
-0.160491
-0.140683
-0.120704
-0.10052
-0.0800824
-0.0593352
-0.0382151
-0.0166553
0.00541172
0.028051
0.0513215
0.075272
0.099935
0.125321
0.15141
0.178142
0.205406
0.23303
0.260761
0.288261
0.315082
0.340667
0.364334
0.385284
0.402612
0.415337
0.422426
0.422874
0.416019
0.401535
0.376202
0.335472
-0.326446
-0.364375
-0.38748
-0.400249
-0.406038
-0.405474
-0.399423
-0.388964
-0.375093
-0.358664
-0.34039
-0.320844
-0.300467
-0.279588
-0.258437
-0.23717
-0.215879
-0.194607
-0.173361
-0.152117
-0.130831
-0.109443
-0.0878783
-0.0660542
-0.0438811
-0.0212656
0.00188757
0.0256726
0.0501792
0.0754885
0.101668
0.128764
0.156795
0.185739
0.215523
0.246007
0.276966
0.308072
0.338875
0.368784
0.39705
0.422762
0.444851
0.462113
0.473239
0.4769
0.472126
0.458312
0.431665
0.387021
-0.381508
-0.423506
-0.44788
-0.459826
-0.463388
-0.459553
-0.449544
-0.434778
-0.416514
-0.395798
-0.373468
-0.350174
-0.326392
-0.302459
-0.278596
-0.254934
-0.231536
-0.208412
-0.185534
-0.162846
-0.140269
-0.117712
-0.0950703
-0.0722309
-0.049075
-0.0254796
-0.00131881
0.0235331
0.0491998
0.0757989
0.103437
0.132204
0.162164
0.193343
0.225718
0.259197
0.2936
0.328633
0.36386
0.398678
0.432284
0.463661
0.491562
0.514529
0.530909
0.538954
0.537255
0.52479
0.49698
0.44786
-0.445733
-0.492609
-0.518113
-0.528428
-0.528595
-0.520143
-0.504807
-0.484448
-0.460651
-0.434679
-0.407502
-0.379832
-0.352167
-0.324826
-0.298
-0.271778
-0.246174
-0.221151
-0.196637
-0.172529
-0.148712
-0.125054
-0.101417
-0.0776535
-0.0536136
-0.029142
-0.00408055
0.0217307
0.0484517
0.0762397
0.105246
0.135608
0.167444
0.20084
0.235838
0.272411
0.310446
0.349707
0.389805
0.430152
0.469923
0.508009
0.542989
0.57312
0.596336
0.610345
0.613129
0.603035
0.574369
0.52006
-0.52141
-0.574207
-0.600478
-0.607875
-0.602917
-0.58797
-0.56548
-0.537883
-0.507154
-0.474789
-0.441877
-0.409164
-0.37713
-0.34605
-0.316049
-0.287146
-0.259287
-0.232371
-0.206262
-0.180808
-0.155843
-0.131191
-0.106676
-0.0821145
-0.0573215
-0.0321086
-0.00628382
0.020348
0.047985
0.0768266
0.107071
0.138911
0.172526
0.208073
0.245671
0.285384
0.327187
0.370941
0.416338
0.462856
0.509687
0.555674
0.599244
0.638359
0.67047
0.692595
0.701881
0.695723
0.666785
0.60639
-0.611794
-0.671814
-0.698054
-0.700449
-0.687797
-0.663721
-0.631649
-0.594737
-0.555396
-0.515342
-0.475736
-0.437305
-0.400454
-0.365359
-0.33204
-0.30041
-0.270321
-0.241584
-0.213989
-0.187317
-0.161348
-0.135856
-0.110622
-0.0854256
-0.0600454
-0.0342592
-0.00784115
0.0194395
0.0478193
0.0775412
0.108853
0.142006
0.177249
0.214818
0.254929
0.297753
0.34339
0.391831
0.442908
0.49622
0.551053
0.606272
0.660212
0.710561
0.754245
0.787435
0.806149
0.806365
0.77826
0.710681
-0.721701
-0.790461
-0.814995
-0.808988
-0.784796
-0.747912
-0.703066
-0.654262
-0.604348
-0.555188
-0.507917
-0.463146
-0.42112
-0.381846
-0.345178
-0.310884
-0.278688
-0.248292
-0.219396
-0.191706
-0.164935
-0.138809
-0.113062
-0.0874338
-0.0616691
-0.0355124
-0.00870483
0.0190184
0.0479315
0.07832
0.110483
0.144731
0.181387
0.220778
0.263228
0.309039
0.358468
0.411686
0.468723
0.529387
0.593156
0.659036
0.725387
0.789716
0.848435
0.896735
0.929159
0.939615
0.914443
0.838464
-0.858592
-0.937505
-0.95693
-0.936923
-0.89543
-0.840638
-0.778895
-0.715101
-0.652426
-0.592711
-0.536892
-0.485309
-0.437924
-0.394478
-0.354595
-0.317847
-0.283796
-0.252013
-0.222095
-0.193661
-0.166359
-0.13986
-0.113852
-0.0880374
-0.0621284
-0.0358384
-0.00887906
0.0190458
0.0482449
0.0790442
0.111791
0.146858
0.184642
0.225567
0.270077
0.318627
0.371662
0.429583
0.492694
0.561113
0.634653
0.712636
0.793649
0.875223
0.953391
1.02233
1.07477
1.10168
1.08345
0.998115
-1.03465
-1.12394
-1.13142
-1.08818
-1.02081
-0.941146
-0.857337
-0.774997
-0.697297
-0.62572
-0.560718
-0.502134
-0.449485
-0.40213
-0.359387
-0.320581
-0.285081
-0.252312
-0.221753
-0.192936
-0.165442
-0.138886
-0.112916
-0.0872016
-0.0614237
-0.0352709
-0.00842974
0.0194221
0.0486228
0.0795339
0.112547
0.148091
0.186638
0.228708
0.274874
0.325757
0.382019
0.444342
0.513379
0.589686
0.673583
0.764958
0.862947
0.96548
1.06858
1.16562
1.24734
1.30077
1.29719
1.20306
-1.27103
-1.36639
-1.34828
-1.26663
-1.16081
-1.04708
-0.935047
-0.830409
-0.735659
-0.651347
-0.577011
-0.511703
-0.454291
-0.403636
-0.358666
-0.318422
-0.282059
-0.24884
-0.218131
-0.189377
-0.162094
-0.135853
-0.110264
-0.0849698
-0.0596299
-0.0339136
-0.00748947
0.0199838
0.0488668
0.0795485
0.112457
0.148071
0.186929
0.229643
0.276913
0.329532
0.388398
0.45451
0.528952
0.612836
0.707205
0.812826
0.929854
1.05725
1.19178
1.32671
1.45117
1.5474
1.57346
1.47626
-1.60659
-1.69011
-1.619
-1.47441
-1.31236
-1.15308
-1.00619
-0.87596
-0.762958
-0.665934
-0.582937
-0.511873
-0.450762
-0.397846
-0.351619
-0.31081
-0.274354
-0.241366
-0.211102
-0.182935
-0.156329
-0.130818
-0.105989
-0.0814654
-0.0568956
-0.0319389
-0.0062547
0.0205079
0.0487217
0.0787933
0.111176
0.146384
0.18501
0.227746
0.275401
0.328936
0.389482
0.458375
0.537174
0.627666
0.731819
0.851652
0.988945
1.14462
1.31753
1.50253
1.68863
1.85375
1.93893
1.85935
-2.11324
-2.13269
-1.9549
-1.70885
-1.46668
-1.24897
-1.06147
-0.903999
-0.773292
-0.665112
-0.575357
-0.500445
-0.437389
-0.38376
-0.337604
-0.297357
-0.261765
-0.229815
-0.200684
-0.173692
-0.148272
-0.123939
-0.100272
-0.0768883
-0.0534368
-0.0295779
-0.00497315
0.0207268
0.0478951
0.0769423
0.108331
0.142596
0.180362
0.222373
0.269528
0.322916
0.383879
0.454066
0.535516
0.630739
0.742788
0.875284
1.03231
1.21799
1.43532
1.68398
1.957
2.23177
2.43272
2.42783
-2.92164
-2.74416
-2.36358
-1.96035
-1.60822
-1.31971
-1.08875
-0.905657
-0.760538
-0.644842
-0.551724
-0.475898
-0.41334
-0.360993
-0.316528
-0.278157
-0.244495
-0.214457
-0.187179
-0.161966
-0.138245
-0.115535
-0.0934221
-0.0715371
-0.0495404
-0.0271067
-0.00391205
0.0203792
0.0461272
0.0737311
0.103646
0.136402
0.172631
0.213097
0.258741
0.310733
0.370556
0.440101
0.521812
0.618873
0.735447
0.876971
1.05045
1.26458
1.5294
1.85482
2.24605
2.6891
3.10574
3.31586
-4.32837
-3.56483
-2.82069
-2.1954
-1.70646
-1.34147
-1.07174
-0.870661
-0.718616
-0.601769
-0.510379
-0.437595
-0.378574
-0.32984
-0.288861
-0.253759
-0.223121
-0.195862
-0.171136
-0.148272
-0.126726
-0.106044
-0.0858415
-0.0657764
-0.0455364
-0.0248228
-0.00333841
0.0192258
0.0432031
0.0689654
0.0969399
0.12763
0.16164
0.199713
0.242775
0.292001
0.34891
0.415497
0.494433
0.589355
0.705305
0.849386
1.03167
1.26646
1.57396
1.98189
2.52005
3.19907
3.99803
4.82806
-7.16316
-4.56371
-3.14512
-2.25979
-1.65365
-1.24424
-0.966103
-0.770971
-0.629466
-0.52388
-0.443017
-0.379573
-0.32866
-0.286916
-0.251964
-0.22208
-0.195986
-0.172714
-0.15152
-0.131814
-0.113125
-0.0950618
-0.0772939
-0.0595297
-0.0415027
-0.0229582
-0.00364146
0.0167123
0.0383912
0.0617182
0.0870668
0.114879
0.145691
0.180163
0.219125
0.263639
0.315095
0.375342
0.446912
0.533348
0.63977
0.773796
0.947084
1.17802
1.49701
1.95434
2.61953
3.57723
5.0819
7.80018
-12.0315
-5.64654
-2.98098
-1.88341
-1.28803
-0.935173
-0.717366
-0.573211
-0.47145
-0.396248
-0.338732
-0.293482
-0.256992
-0.226878
-0.201456
-0.179498
-0.16009
-0.142535
-0.126295
-0.110943
-0.0961367
-0.0815929
-0.0670707
-0.0523581
-0.0372599
-0.0215888
-0.00515617
0.0122372
0.0308085
0.0508035
0.0725075
0.096259
0.122468
0.151637
0.184395
0.221543
0.264115
0.31348
0.371495
0.440755
0.525036
0.630107
0.765316
0.947103
1.20747
1.61028
2.2721
3.4646
6.24703
12.7573
)
;

boundaryField
{
    movingWall
    {
        type            zeroGradient;
    }
    fixedWalls
    {
        type            zeroGradient;
    }
    frontAndBack
    {
        type            empty;
    }
}


// ************************************************************************* //
