/*--------------------------------*- C++ -*----------------------------------*\
  =========                 |
  \\      /  F ield         | OpenFOAM: The Open Source CFD Toolbox
   \\    /   O peration     | Website:  https://openfoam.org
    \\  /    A nd           | Version:  7
     \\/     M anipulation  |
\*---------------------------------------------------------------------------*/
FoamFile
{
    version     2.0;
    format      ascii;
    class       surfaceScalarField;
    location    "0.0548";
    object      phi;
}
// * * * * * * * * * * * * * * * * * * * * * * * * * * * * * * * * * * * * * //

dimensions      [0 3 -1 0 0 0 0];

internalField   nonuniform List<scalar> 
4900
(
-5.55551e-06
5.55549e-06
-1.01611e-05
4.60562e-06
-1.29489e-05
2.78775e-06
-1.46691e-05
1.72026e-06
-1.57716e-05
1.10251e-06
-1.65105e-05
7.38818e-07
-1.7031e-05
5.2053e-07
-1.74152e-05
3.8417e-07
-1.77096e-05
2.94423e-07
-1.79418e-05
2.32254e-07
-1.81291e-05
1.87228e-07
-1.82825e-05
1.53379e-07
-1.84096e-05
1.2712e-07
-1.85158e-05
1.0619e-07
-1.86049e-05
8.91001e-08
-1.86797e-05
7.48329e-08
-1.87424e-05
6.26691e-08
-1.87944e-05
5.20872e-08
-1.88371e-05
4.2699e-08
-1.88714e-05
3.42093e-08
-1.88977e-05
2.63885e-08
-1.89168e-05
1.90536e-08
-1.89289e-05
1.20551e-08
-1.89341e-05
5.26703e-09
-1.89327e-05
-1.42138e-09
-1.89246e-05
-8.10896e-09
-1.89097e-05
-1.48931e-08
-1.88878e-05
-2.18702e-08
-1.88587e-05
-2.91439e-08
-1.88219e-05
-3.68302e-08
-1.87768e-05
-4.50658e-08
-1.87228e-05
-5.40181e-08
-1.86589e-05
-6.38987e-08
-1.85839e-05
-7.49826e-08
-1.84963e-05
-8.76368e-08
-1.83939e-05
-1.02362e-07
-1.8274e-05
-1.19856e-07
-1.81329e-05
-1.41125e-07
-1.79653e-05
-1.67657e-07
-1.77635e-05
-2.01735e-07
-1.75165e-05
-2.47011e-07
-1.72069e-05
-3.09575e-07
-1.68069e-05
-4.00009e-07
-1.62696e-05
-5.37356e-07
-1.55135e-05
-7.56096e-07
-1.43976e-05
-1.11591e-06
-1.26824e-05
-1.71519e-06
-9.94638e-06
-2.73599e-06
-5.4526e-06
-4.49378e-06
-5.4526e-06
-1.19174e-08
5.5674e-06
-2.13052e-06
6.72423e-06
-4.85761e-06
5.51484e-06
-7.27479e-06
4.13744e-06
-9.21299e-06
3.04071e-06
-1.07249e-05
2.25077e-06
-1.19039e-05
1.69953e-06
-1.2833e-05
1.31322e-06
-1.35755e-05
1.03691e-06
-1.41773e-05
8.34123e-07
-1.46714e-05
6.81311e-07
-1.50812e-05
5.63197e-07
-1.54238e-05
4.69711e-07
-1.57117e-05
3.94064e-07
-1.59542e-05
3.31564e-07
-1.61582e-05
2.7889e-07
-1.63292e-05
2.33634e-07
-1.64711e-05
1.94015e-07
-1.65871e-05
1.58689e-07
-1.66795e-05
1.2662e-07
-1.67501e-05
9.69924e-08
-1.68002e-05
6.91526e-08
-1.68307e-05
4.25615e-08
-1.68422e-05
1.67624e-08
-1.6835e-05
-8.645e-09
-1.68091e-05
-3.40273e-08
-1.67642e-05
-5.97346e-08
-1.67e-05
-8.612e-08
-1.66156e-05
-1.13559e-07
-1.65099e-05
-1.42469e-07
-1.63817e-05
-1.73339e-07
-1.62289e-05
-2.06761e-07
-1.60494e-05
-2.43475e-07
-1.58399e-05
-2.8443e-07
-1.55967e-05
-3.30873e-07
-1.53146e-05
-3.84473e-07
-1.49869e-05
-4.4751e-07
-1.46049e-05
-5.23159e-07
-1.41566e-05
-6.15934e-07
-1.36259e-05
-7.32392e-07
-1.29907e-05
-8.82261e-07
-1.222e-05
-1.08023e-06
-1.12713e-05
-1.34873e-06
-1.00867e-05
-1.72198e-06
-8.59225e-06
-2.25054e-06
-6.70794e-06
-3.00022e-06
-4.39419e-06
-4.02895e-06
-1.81927e-06
-5.3109e-06
1.24066e-07
-6.43712e-06
-5.32853e-06
1.03256e-06
4.53485e-06
5.47449e-07
7.20933e-06
-9.91154e-07
7.05344e-06
-2.8859e-06
6.03218e-06
-4.74305e-06
4.89787e-06
-6.40217e-06
3.90988e-06
-7.82385e-06
3.12121e-06
-9.02122e-06
2.51059e-06
-1.00246e-05
2.04032e-06
-1.08663e-05
1.67578e-06
-1.15746e-05
1.38963e-06
-1.2173e-05
1.16155e-06
-1.268e-05
9.76731e-07
-1.31103e-05
8.24402e-07
-1.34755e-05
6.96693e-07
-1.37844e-05
5.87787e-07
-1.4044e-05
4.93321e-07
-1.426e-05
4.09982e-07
-1.44365e-05
3.35214e-07
-1.45769e-05
2.67012e-07
-1.46837e-05
2.03778e-07
-1.47588e-05
1.44213e-07
-1.48034e-05
8.72352e-08
-1.48186e-05
3.19239e-08
-1.48047e-05
-2.25332e-08
-1.47619e-05
-7.68804e-08
-1.46898e-05
-1.31829e-07
-1.45878e-05
-1.88091e-07
-1.44549e-05
-2.4642e-07
-1.42898e-05
-3.07645e-07
-1.40904e-05
-3.72725e-07
-1.38543e-05
-4.42804e-07
-1.35785e-05
-5.1929e-07
-1.3259e-05
-6.03958e-07
-1.28908e-05
-6.99093e-07
-1.24676e-05
-8.07676e-07
-1.19814e-05
-9.33664e-07
-1.14222e-05
-1.08236e-06
-1.07772e-05
-1.26098e-06
-1.00302e-05
-1.47935e-06
-9.16147e-06
-1.751e-06
-8.14739e-06
-2.0943e-06
-6.96242e-06
-2.5337e-06
-5.58478e-06
-3.09963e-06
-4.01112e-06
-3.82419e-06
-2.2882e-06
-4.72314e-06
-5.73285e-07
-5.74387e-06
7.6628e-07
-6.65047e-06
1.08754e-06
-6.75838e-06
-4.241e-06
9.06466e-07
3.62838e-06
1.22906e-06
6.88674e-06
6.44437e-07
7.63806e-06
-5.21572e-07
7.19819e-06
-1.94012e-06
6.31642e-06
-3.39303e-06
5.36279e-06
-4.76338e-06
4.49156e-06
-6.00145e-06
3.74866e-06
-7.09473e-06
3.1336e-06
-8.04861e-06
2.62966e-06
-8.87572e-06
2.21675e-06
-9.59054e-06
1.87637e-06
-1.02069e-05
1.59311e-06
-1.07371e-05
1.35463e-06
-1.11917e-05
1.15121e-06
-1.15792e-05
9.753e-07
-1.19068e-05
8.2096e-07
-1.21804e-05
6.83533e-07
-1.24045e-05
5.59321e-07
-1.25828e-05
4.45357e-07
-1.27183e-05
3.39232e-07
-1.2813e-05
2.38955e-07
-1.28686e-05
1.42853e-07
-1.28862e-05
4.94854e-08
-1.28663e-05
-4.24257e-08
-1.28091e-05
-1.34051e-07
-1.27145e-05
-2.26508e-07
-1.25816e-05
-3.2091e-07
-1.24096e-05
-4.1842e-07
-1.2197e-05
-5.20304e-07
-1.19417e-05
-6.28e-07
-1.16413e-05
-7.43195e-07
-1.12927e-05
-8.67924e-07
-1.08919e-05
-1.00469e-06
-1.04344e-05
-1.15664e-06
-9.91433e-06
-1.32775e-06
-9.3249e-06
-1.52309e-06
-8.65809e-06
-1.74917e-06
-7.90472e-06
-2.01435e-06
-7.05488e-06
-2.32919e-06
-6.09904e-06
-2.70684e-06
-5.03051e-06
-3.16283e-06
-3.85054e-06
-3.71367e-06
-2.5779e-06
-4.37227e-06
-1.2656e-06
-5.13648e-06
-2.59925e-08
-5.96275e-06
9.42732e-07
-6.71259e-06
1.34915e-06
-7.05688e-06
9.1689e-07
-6.32612e-06
-3.32411e-06
6.71933e-07
2.95645e-06
1.2442e-06
6.31448e-06
1.22462e-06
7.65764e-06
6.53893e-07
7.76892e-06
-2.80602e-07
7.25092e-06
-1.39658e-06
6.47877e-06
-2.56177e-06
5.65675e-06
-3.69495e-06
4.88184e-06
-4.75267e-06
4.19132e-06
-5.71567e-06
3.59266e-06
-6.57876e-06
3.07984e-06
-7.34421e-06
2.64182e-06
-8.01777e-06
2.26668e-06
-8.60652e-06
1.94337e-06
-9.11758e-06
1.66228e-06
-9.55761e-06
1.41533e-06
-9.9325e-06
1.19585e-06
-1.02473e-05
9.98341e-07
-1.05063e-05
8.18301e-07
-1.07129e-05
6.52004e-07
-1.08701e-05
4.96355e-07
-1.09799e-05
3.48749e-07
-1.1044e-05
2.06965e-07
-1.10635e-05
6.9065e-08
-1.10393e-05
-6.66755e-08
-1.09715e-05
-2.01843e-07
-1.08601e-05
-3.37945e-07
-1.07045e-05
-4.76475e-07
-1.05039e-05
-6.18972e-07
-1.02572e-05
-7.67083e-07
-9.96252e-06
-9.22645e-07
-9.61795e-06
-1.08776e-06
-9.22097e-06
-1.26491e-06
-8.7686e-06
-1.45706e-06
-8.25745e-06
-1.66779e-06
-7.68371e-06
-1.90149e-06
-7.04332e-06
-2.16348e-06
-6.33228e-06
-2.46021e-06
-5.54732e-06
-2.79931e-06
-4.68701e-06
-3.1895e-06
-3.75389e-06
-3.63996e-06
-2.75792e-06
-4.15881e-06
-1.72206e-06
-4.74953e-06
-6.90605e-07
-5.40372e-06
2.60047e-07
-6.08713e-06
1.0119e-06
-6.7146e-06
1.40849e-06
-7.10918e-06
1.29737e-06
-6.94576e-06
6.6655e-07
-5.6953e-06
-2.65756e-06
4.80623e-07
2.47583e-06
1.07684e-06
5.71826e-06
1.34264e-06
7.39184e-06
1.17746e-06
7.93411e-06
6.4884e-07
7.77954e-06
-1.24712e-07
7.25232e-06
-1.03121e-06
6.56325e-06
-1.98566e-06
5.83628e-06
-2.93032e-06
5.13598e-06
-3.83009e-06
4.49243e-06
-4.66556e-06
3.91531e-06
-5.42761e-06
3.40386e-06
-6.11338e-06
2.95245e-06
-6.72365e-06
2.55365e-06
-7.2611e-06
2.19973e-06
-7.72923e-06
1.88346e-06
-8.13177e-06
1.59839e-06
-8.4723e-06
1.33887e-06
-8.75407e-06
1.10007e-06
-8.97991e-06
8.77849e-07
-9.15223e-06
6.6867e-07
-9.27296e-06
4.69485e-07
-9.34364e-06
2.77643e-07
-9.36539e-06
9.08113e-08
-9.33895e-06
-9.31099e-08
-9.26474e-06
-2.76053e-07
-9.14284e-06
-4.59851e-07
-8.97301e-06
-6.46301e-07
-8.75476e-06
-8.37226e-07
-8.4873e-06
-1.03455e-06
-8.1696e-06
-1.24034e-06
-7.80042e-06
-1.45694e-06
-7.37834e-06
-1.68699e-06
-6.90184e-06
-1.93356e-06
-6.36944e-06
-2.20019e-06
-5.77992e-06
-2.491e-06
-5.13271e-06
-2.81069e-06
-4.42846e-06
-3.16447e-06
-3.66999e-06
-3.55778e-06
-2.86385e-06
-3.99564e-06
-2.02245e-06
-4.48136e-06
-1.16732e-06
-5.01394e-06
-3.33291e-07
-5.58355e-06
4.26678e-07
-6.16369e-06
1.03799e-06
-6.69845e-06
1.40689e-06
-7.08349e-06
1.43908e-06
-7.14137e-06
1.09033e-06
-6.59701e-06
4.69809e-07
-5.07479e-06
-2.18775e-06
3.48312e-07
2.12751e-06
8.91676e-07
5.17489e-06
1.27871e-06
7.0048e-06
1.36188e-06
7.85093e-06
1.13341e-06
8.008e-06
6.53172e-07
7.73256e-06
1.48753e-10
7.21628e-06
-7.51788e-07
6.58822e-06
-1.54525e-06
5.92944e-06
-2.33831e-06
5.2855e-06
-3.10293e-06
4.67993e-06
-3.82155e-06
4.12248e-06
-4.48404e-06
3.61495e-06
-5.08527e-06
3.15487e-06
-5.62326e-06
2.73772e-06
-6.09801e-06
2.35822e-06
-6.51063e-06
2.011e-06
-6.86276e-06
1.691e-06
-7.15625e-06
1.39356e-06
-7.39296e-06
1.11455e-06
-7.57457e-06
8.50286e-07
-7.70259e-06
5.97503e-07
-7.77826e-06
3.53314e-07
-7.80258e-06
1.15128e-07
-7.77629e-06
-1.19402e-07
-7.6999e-06
-3.52445e-07
-7.5737e-06
-5.8605e-07
-7.39779e-06
-8.22205e-07
-7.17213e-06
-1.06289e-06
-6.89652e-06
-1.31015e-06
-6.57074e-06
-1.56612e-06
-6.19455e-06
-1.83313e-06
-5.76784e-06
-2.11371e-06
-5.29077e-06
-2.41063e-06
-4.76399e-06
-2.72697e-06
-4.18901e-06
-3.06599e-06
-3.56864e-06
-3.43106e-06
-2.90777e-06
-3.82534e-06
-2.21431e-06
-4.25123e-06
-1.50066e-06
-4.70929e-06
-7.85483e-07
-5.19654e-06
-9.59175e-08
-5.7035e-06
5.30182e-07
-6.20965e-06
1.04295e-06
-6.67646e-06
1.38223e-06
-7.03772e-06
1.48617e-06
-7.18743e-06
1.31288e-06
-6.96808e-06
8.81689e-07
-6.16582e-06
3.3575e-07
-4.52885e-06
-1.852e-06
2.60994e-07
1.86652e-06
7.33854e-07
4.70203e-06
1.15599e-06
6.58267e-06
1.37909e-06
7.62783e-06
1.35663e-06
8.03047e-06
1.10599e-06
7.9832e-06
6.7468e-07
7.64759e-06
1.17465e-07
7.14543e-06
-5.14819e-07
6.56172e-06
-1.18093e-06
5.95161e-06
-1.84959e-06
5.3486e-06
-2.49844e-06
4.77133e-06
-3.11223e-06
4.22874e-06
-3.68109e-06
3.72373e-06
-4.19901e-06
3.25564e-06
-4.66265e-06
2.82186e-06
-5.07044e-06
2.41879e-06
-5.42196e-06
2.04252e-06
-5.71749e-06
1.68909e-06
-5.95768e-06
1.35474e-06
-6.14337e-06
1.03598e-06
-6.27545e-06
7.29583e-07
-6.35478e-06
4.32639e-07
-6.38213e-06
1.42477e-07
-6.35818e-06
-1.43346e-07
-6.28353e-06
-4.27098e-07
-6.15867e-06
-7.10909e-07
-5.98405e-06
-9.96822e-07
-5.76011e-06
-1.28683e-06
-5.48733e-06
-1.58293e-06
-5.16631e-06
-1.88714e-06
-4.7979e-06
-2.20154e-06
-4.38333e-06
-2.52828e-06
-3.92439e-06
-2.86957e-06
-3.42376e-06
-3.22759e-06
-2.88536e-06
-3.60438e-06
-2.31487e-06
-4.00155e-06
-1.72039e-06
-4.41982e-06
-1.11334e-06
-4.85827e-06
-5.09524e-07
-5.31311e-06
6.97359e-08
-5.7758e-06
5.96484e-07
-6.23025e-06
1.03571e-06
-6.64888e-06
1.34649e-06
-6.98725e-06
1.48644e-06
-7.17767e-06
1.42187e-06
-7.12286e-06
1.14637e-06
-6.69259e-06
7.09098e-07
-5.72855e-06
2.47531e-07
-4.06728e-06
-1.60447e-06
2.02734e-07
1.66379e-06
6.08819e-07
4.29595e-06
1.02476e-06
6.16673e-06
1.31934e-06
7.33325e-06
1.43072e-06
7.91908e-06
1.34962e-06
8.0643e-06
1.09836e-06
7.89885e-06
7.13653e-07
7.53014e-06
2.35324e-07
7.04005e-06
-3.00102e-07
6.48704e-06
-8.62077e-07
5.91057e-06
-1.42657e-06
5.33582e-06
-1.97553e-06
4.77769e-06
-2.4959e-06
4.2441e-06
-2.97857e-06
3.73831e-06
-3.41741e-06
3.2607e-06
-3.80849e-06
2.80987e-06
-4.14941e-06
2.38344e-06
-4.43886e-06
1.97855e-06
-4.67628e-06
1.59216e-06
-4.86157e-06
1.22126e-06
-4.99493e-06
8.62941e-07
-5.07675e-06
5.14457e-07
-5.10752e-06
1.73255e-07
-5.08783e-06
-1.63041e-07
-5.01828e-06
-4.96644e-07
-4.89957e-06
-8.29622e-07
-4.73246e-06
-1.16393e-06
-4.51787e-06
-1.50143e-06
-4.25691e-06
-1.84389e-06
-3.95099e-06
-2.19306e-06
-3.60195e-06
-2.55057e-06
-3.21224e-06
-2.91799e-06
-2.78511e-06
-3.29671e-06
-2.3249e-06
-3.68781e-06
-1.83742e-06
-4.09186e-06
-1.3304e-06
-4.50857e-06
-8.14035e-07
-4.93619e-06
-3.01614e-07
-5.3707e-06
1.8984e-07
-5.80457e-06
6.39044e-07
-6.225e-06
1.02034e-06
-6.61155e-06
1.3045e-06
-6.93303e-06
1.46115e-06
-7.14389e-06
1.46404e-06
-7.18056e-06
1.30026e-06
-6.95907e-06
9.84041e-07
-6.37637e-06
5.74111e-07
-5.31862e-06
1.88537e-07
-3.68171e-06
-1.41593e-06
1.62562e-07
1.50123e-06
5.11432e-07
3.94708e-06
9.03272e-07
5.77489e-06
1.22821e-06
7.00831e-06
1.42208e-06
7.72521e-06
1.46094e-06
8.02544e-06
1.34943e-06
8.01036e-06
1.10885e-06
7.77072e-06
7.6787e-07
7.38103e-06
3.5628e-07
6.89863e-06
-9.85753e-08
6.36543e-06
-5.73375e-07
5.81062e-06
-1.04923e-06
5.25355e-06
-1.5114e-06
4.70627e-06
-1.94877e-06
4.17568e-06
-2.35315e-06
3.66508e-06
-2.71869e-06
3.17541e-06
-3.04132e-06
2.70606e-06
-3.3183e-06
2.25553e-06
-3.54789e-06
1.82176e-06
-3.72908e-06
1.40246e-06
-3.86138e-06
9.95237e-07
-3.94467e-06
5.97748e-07
-3.97914e-06
2.0772e-07
-3.96519e-06
-1.76992e-07
-3.90343e-06
-5.58396e-07
-3.7947e-06
-9.38359e-07
-3.64002e-06
-1.31861e-06
-3.44072e-06
-1.70072e-06
-3.19847e-06
-2.08615e-06
-2.91537e-06
-2.47616e-06
-2.5941e-06
-2.87184e-06
-2.23811e-06
-3.27399e-06
-1.85176e-06
-3.68306e-06
-1.44063e-06
-4.09893e-06
-1.01182e-06
-4.52067e-06
-5.74298e-07
-4.94609e-06
-1.39253e-07
-5.37123e-06
2.79513e-07
-5.78946e-06
6.65343e-07
-6.1904e-06
9.98744e-07
-6.5584e-06
1.25792e-06
-6.87073e-06
1.42024e-06
-7.09535e-06
1.46512e-06
-7.18878e-06
1.37897e-06
-7.09441e-06
1.1625e-06
-6.7426e-06
8.40132e-07
-6.054e-06
4.69689e-07
-4.94817e-06
1.47724e-07
-3.35974e-06
-1.26821e-06
1.33754e-07
1.36747e-06
4.35135e-07
3.6457e-06
7.96441e-07
5.41359e-06
1.1278e-06
6.67695e-06
1.36901e-06
7.48401e-06
1.48948e-06
7.90497e-06
1.48246e-06
8.01738e-06
1.3575e-06
7.89568e-06
1.13341e-06
7.60512e-06
8.32861e-07
7.19917e-06
4.78802e-07
6.71949e-06
9.23349e-08
6.19709e-06
-3.08277e-07
5.65416e-06
-7.07899e-07
5.1059e-06
-1.0944e-06
4.56218e-06
-1.4583e-06
4.02898e-06
-1.79238e-06
3.50949e-06
-2.09127e-06
3.00495e-06
-2.35105e-06
2.51531e-06
-2.56897e-06
2.03968e-06
-2.74318e-06
1.57666e-06
-2.87252e-06
1.12458e-06
-2.9564e-06
6.81624e-07
-2.99465e-06
2.45972e-07
-2.9875e-06
-1.84144e-07
-2.9355e-06
-6.10391e-07
-2.83956e-06
-1.03431e-06
-2.7009e-06
-1.45726e-06
-2.52117e-06
-1.88045e-06
-2.30246e-06
-2.30486e-06
-2.04741e-06
-2.7312e-06
-1.75936e-06
-3.15989e-06
-1.44244e-06
-3.59091e-06
-1.1018e-06
-4.0237e-06
-7.4381e-07
-4.45693e-06
-3.76253e-07
-4.88822e-06
-8.5952e-09
-5.31375e-06
3.47825e-07
-5.72765e-06
6.79675e-07
-6.12131e-06
9.71688e-07
-6.48241e-06
1.20704e-06
-6.79375e-06
1.36825e-06
-7.03194e-06
1.4389e-06
-7.166e-06
1.40642e-06
-7.1563e-06
1.26621e-06
-6.95421e-06
1.02703e-06
-6.50342e-06
7.16955e-07
-5.74393e-06
3.88314e-07
-4.61953e-06
1.18395e-07
-3.08982e-06
-1.14981e-06
1.12267e-07
1.2552e-06
3.74391e-07
3.38357e-06
7.04016e-07
5.08396e-06
1.02821e-06
6.35275e-06
1.29322e-06
7.219e-06
1.46663e-06
7.73156e-06
1.53509e-06
7.94891e-06
1.4998e-06
7.93097e-06
1.37158e-06
7.73334e-06
1.16659e-06
7.40416e-06
9.03066e-07
6.98301e-06
5.99112e-07
6.50104e-06
2.71405e-07
5.98186e-06
-6.54648e-08
5.44277e-06
-3.99198e-07
4.89591e-06
-7.19727e-07
4.34951e-06
-1.01901e-06
3.80878e-06
-1.29077e-06
3.27671e-06
-1.53021e-06
2.75475e-06
-1.73377e-06
2.24324e-06
-1.89889e-06
1.74178e-06
-2.02382e-06
1.24952e-06
-2.10753e-06
7.65327e-07
-2.14951e-06
2.87954e-07
-2.14978e-06
-1.83872e-07
-2.10881e-06
-6.51365e-07
-2.02749e-06
-1.11562e-06
-1.9072e-06
-1.57756e-06
-1.74975e-06
-2.0379e-06
-1.55755e-06
-2.49706e-06
-1.33359e-06
-2.95516e-06
-1.08162e-06
-3.41186e-06
-8.06218e-07
-3.86631e-06
-5.12961e-07
-4.31695e-06
-2.08563e-07
-4.76133e-06
9.89828e-08
-5.19577e-06
4.00278e-07
-5.61505e-06
6.84472e-07
-6.01184e-06
9.39322e-07
-6.37616e-06
1.15147e-06
-6.69456e-06
1.30702e-06
-6.9493e-06
1.3926e-06
-7.11752e-06
1.39704e-06
-7.17045e-06
1.31382e-06
-7.07307e-06
1.14422e-06
-6.78461e-06
9.01132e-07
-6.26033e-06
6.12582e-07
-5.45538e-06
3.23915e-07
-4.33086e-06
9.65286e-08
-2.86243e-06
-1.05328e-06
9.56463e-08
1.15956e-06
3.25033e-07
3.15418e-06
6.24063e-07
4.78493e-06
9.33547e-07
6.04327e-06
1.20672e-06
6.94583e-06
1.41208e-06
7.5262e-06
1.53292e-06
7.82807e-06
1.56492e-06
7.89897e-06
1.51285e-06
7.78541e-06
1.38735e-06
7.52966e-06
1.2022e-06
7.16816e-06
9.7227e-07
6.73097e-06
7.12121e-07
6.24201e-06
4.35172e-07
5.71971e-06
1.53251e-07
5.17783e-06
-1.23552e-07
4.62632e-06
-3.86863e-07
4.07209e-06
-6.29891e-07
3.51974e-06
-8.47258e-07
2.97212e-06
-1.03481e-06
2.43079e-06
-1.18944e-06
1.89641e-06
-1.30894e-06
1.36902e-06
-1.39185e-06
8.48234e-07
-1.43737e-06
3.33477e-07
-1.4453e-06
-1.75937e-07
-1.41599e-06
-6.80682e-07
-1.35028e-06
-1.18133e-06
-1.24955e-06
-1.67828e-06
-1.11576e-06
-2.17169e-06
-9.51416e-07
-2.66141e-06
-7.59724e-07
-3.14685e-06
-5.44616e-07
-3.62697e-06
-3.10859e-07
-4.10007e-06
-6.41514e-08
-4.56366e-06
1.8879e-07
-5.01427e-06
4.40156e-07
-5.44714e-06
6.81028e-07
-5.85592e-06
9.01434e-07
-6.23225e-06
1.09054e-06
-6.56527e-06
1.23707e-06
-6.84108e-06
1.32993e-06
-7.04216e-06
1.35931e-06
-7.1469e-06
1.31817e-06
-7.12931e-06
1.20422e-06
-6.95912e-06
1.02229e-06
-6.60268e-06
7.8684e-07
-6.02489e-06
5.23953e-07
-5.19249e-06
2.71982e-07
-4.07889e-06
7.96683e-08
-2.67012e-06
-9.73614e-07
8.23611e-08
1.0772e-06
2.8404e-07
2.95251e-06
5.54341e-07
4.51463e-06
8.45041e-07
5.75257e-06
1.11603e-06
6.67484e-06
1.33806e-06
7.30417e-06
1.49324e-06
7.67289e-06
1.57387e-06
7.81835e-06
1.58036e-06
7.77892e-06
1.51894e-06
7.59108e-06
1.3995e-06
7.28761e-06
1.23376e-06
6.89671e-06
1.034e-06
6.44177e-06
8.12096e-07
5.94162e-06
5.78975e-07
5.41095e-06
3.44316e-07
4.86098e-06
1.16429e-07
4.29997e-06
-9.77295e-08
3.7339e-06
-2.92478e-07
3.16687e-06
-4.63294e-07
2.60161e-06
-6.0669e-07
2.03981e-06
-7.20085e-07
1.48241e-06
-8.01703e-07
9.29851e-07
-8.5048e-07
3.82254e-07
-8.65996e-07
-1.60421e-07
-8.48436e-07
-6.98242e-07
-7.98559e-07
-1.23121e-06
-7.17698e-07
-1.75914e-06
-6.07778e-07
-2.28161e-06
-4.71346e-07
-2.79784e-06
-3.11617e-07
-3.30658e-06
-1.32534e-07
-3.80605e-06
6.11765e-08
-4.29378e-06
2.63943e-07
-4.76643e-06
4.69311e-07
-5.21964e-06
6.6994e-07
-5.64776e-06
8.57646e-07
-6.04362e-06
1.02355e-06
-6.39815e-06
1.15833e-06
-6.70006e-06
1.25271e-06
-6.93546e-06
1.2981e-06
-7.08754e-06
1.28756e-06
-7.13636e-06
1.21711e-06
-7.05886e-06
1.08725e-06
-6.82926e-06
9.04669e-07
-6.4201e-06
6.83835e-07
-5.80405e-06
4.48033e-07
-4.95669e-06
2.29252e-07
-3.86011e-06
6.62687e-08
-2.50714e-06
-9.07346e-07
7.14256e-08
1.00577e-06
2.49242e-07
2.77469e-06
4.928e-07
4.27107e-06
7.62609e-07
5.48276e-06
1.02452e-06
6.41293e-06
1.25215e-06
7.07654e-06
1.42772e-06
7.49732e-06
1.54169e-06
7.70437e-06
1.59153e-06
7.72907e-06
1.58012e-06
7.60249e-06
1.51409e-06
7.35364e-06
1.40234e-06
7.00846e-06
1.25488e-06
6.58923e-06
1.08191e-06
6.11459e-06
8.93209e-07
5.59966e-06
6.97731e-07
5.05645e-06
5.03424e-07
4.49428e-06
3.17131e-07
3.92019e-06
1.44591e-07
3.33941e-06
-9.5094e-09
2.75571e-06
-1.41455e-07
2.17175e-06
-2.4842e-07
1.58938e-06
-3.28384e-07
1.00981e-06
-3.80055e-07
4.33925e-07
-4.02819e-07
-1.37657e-07
-3.96687e-07
-7.04374e-07
-3.62281e-07
-1.26561e-06
-3.00818e-07
-1.82061e-06
-2.14121e-07
-2.36831e-06
-1.04635e-07
-2.90732e-06
2.45386e-08
-3.43575e-06
1.6961e-07
-3.95113e-06
3.26071e-07
-4.45024e-06
4.88666e-07
-4.92902e-06
6.514e-07
-5.38237e-06
8.07573e-07
-5.80394e-06
9.49882e-07
-6.18593e-06
1.07061e-06
-6.51888e-06
1.16192e-06
-6.79137e-06
1.21632e-06
-6.98986e-06
1.22731e-06
-7.09853e-06
1.19018e-06
-7.09924e-06
1.10309e-06
-6.97177e-06
9.68216e-07
-6.69438e-06
7.92942e-07
-6.24483e-06
5.90855e-07
-5.60196e-06
3.82184e-07
-4.74802e-06
1.93365e-07
-3.67129e-06
5.53217e-08
-2.36909e-06
-8.52024e-07
6.21828e-08
9.43588e-07
2.19072e-07
2.6178e-06
4.37718e-07
4.05243e-06
6.85624e-07
5.23485e-06
9.33845e-07
6.16471e-06
1.15899e-06
6.8514e-06
1.34421e-06
7.31211e-06
1.47918e-06
7.5694e-06
1.55952e-06
7.64874e-06
1.58564e-06
7.57636e-06
1.5616e-06
7.37769e-06
1.49387e-06
7.07618e-06
1.39039e-06
6.69272e-06
1.25965e-06
6.24532e-06
1.11017e-06
5.74914e-06
9.50017e-07
5.21661e-06
7.86551e-07
4.65775e-06
6.26288e-07
4.08045e-06
4.74824e-07
3.49087e-06
3.36838e-07
2.89369e-06
2.16127e-07
2.29247e-06
1.1565e-07
1.68985e-06
3.75939e-08
1.08787e-06
-1.65754e-08
4.88095e-07
-4.60636e-08
-1.08169e-07
-5.07108e-08
-6.99726e-07
-3.09672e-08
-1.28536e-06
1.21189e-08
-1.86369e-06
7.69013e-08
-2.43309e-06
1.61128e-07
-2.99155e-06
2.61925e-07
-3.53655e-06
3.75781e-07
-4.06498e-06
4.98539e-07
-4.573e-06
6.25397e-07
-5.05588e-06
7.50942e-07
-5.50791e-06
8.69217e-07
-5.92221e-06
9.73852e-07
-6.29057e-06
1.05827e-06
-6.6033e-06
1.116e-06
-6.8491e-06
1.14108e-06
-7.01495e-06
1.12867e-06
-7.08612e-06
1.07571e-06
-7.04628e-06
9.81754e-07
-6.87781e-06
8.49838e-07
-6.56247e-06
6.87301e-07
-6.08229e-06
5.06358e-07
-5.42102e-06
3.24233e-07
-4.56589e-06
1.62599e-07
-3.50966e-06
4.61464e-08
-2.25264e-06
-8.05877e-07
5.41813e-08
8.89407e-07
1.92389e-07
2.47959e-06
3.87705e-07
3.85711e-06
6.13292e-07
5.00927e-06
8.44695e-07
5.93331e-06
1.06146e-06
6.63464e-06
1.24804e-06
7.12552e-06
1.39412e-06
7.42332e-06
1.49422e-06
7.54864e-06
1.54707e-06
7.52351e-06
1.55475e-06
7.37001e-06
1.52173e-06
7.10919e-06
1.45409e-06
6.76035e-06
1.35876e-06
6.34065e-06
1.24297e-06
5.86494e-06
1.11379e-06
5.34579e-06
9.77874e-07
4.79366e-06
8.41258e-07
4.21707e-06
7.0924e-07
3.62289e-06
5.86349e-07
3.01658e-06
4.76337e-07
2.40248e-06
3.82199e-07
1.78399e-06
3.06209e-07
1.16386e-06
2.49959e-07
5.44345e-07
2.14394e-07
-7.26043e-08
1.99845e-07
-6.85177e-07
2.06048e-07
-1.29156e-06
2.32164e-07
-1.88981e-06
2.76779e-07
-2.47771e-06
3.37906e-07
-3.05268e-06
4.12983e-07
-3.61163e-06
4.9887e-07
-4.15087e-06
5.91855e-07
-4.66598e-06
6.8768e-07
-5.15171e-06
7.81583e-07
-5.60182e-06
8.68394e-07
-6.00902e-06
9.42666e-07
-6.36484e-06
9.98891e-07
-6.65952e-06
1.03178e-06
-6.88199e-06
1.03667e-06
-7.01984e-06
1.00997e-06
-7.05942e-06
9.49773e-07
-6.98608e-06
8.5646e-07
-6.7845e-06
7.33358e-07
-6.43936e-06
5.87274e-07
-5.93621e-06
4.28834e-07
-5.26258e-06
2.72431e-07
-4.40949e-06
1.35684e-07
-3.37291e-06
3.82685e-08
-2.15523e-06
-7.67609e-07
4.71027e-08
8.42304e-07
1.68349e-07
2.35835e-06
3.41654e-07
3.68381e-06
5.44823e-07
4.8061e-06
7.57266e-07
5.72086e-06
9.61278e-07
6.43062e-06
1.14288e-06
6.94392e-06
1.29215e-06
7.27405e-06
1.40316e-06
7.43763e-06
1.47354e-06
7.45313e-06
1.5039e-06
7.33965e-06
1.49714e-06
7.11596e-06
1.45774e-06
6.79975e-06
1.39122e-06
6.40717e-06
1.30356e-06
5.9526e-06
1.20085e-06
5.44851e-06
1.08894e-06
4.90556e-06
9.73292e-07
4.33272e-06
8.58794e-07
3.73739e-06
7.49713e-07
3.12566e-06
6.49655e-07
2.50254e-06
5.61563e-07
1.87208e-06
4.8773e-07
1.23769e-06
4.29823e-07
6.02252e-07
3.88907e-07
-3.1689e-08
3.65474e-07
-6.61743e-07
3.59455e-07
-1.28554e-06
3.70242e-07
-1.90059e-06
3.96692e-07
-2.50416e-06
4.37138e-07
-3.09312e-06
4.89386e-07
-3.66388e-06
5.50731e-07
-4.21221e-06
6.1797e-07
-4.73322e-06
6.87435e-07
-5.22117e-06
7.55052e-07
-5.66943e-06
8.16434e-07
-6.0704e-06
8.67015e-07
-6.41542e-06
9.0225e-07
-6.69476e-06
9.17875e-07
-6.89761e-06
9.10234e-07
-7.0122e-06
8.76688e-07
-7.02588e-06
8.16068e-07
-6.92546e-06
7.29162e-07
-6.69759e-06
6.19179e-07
-6.32938e-06
4.92112e-07
-5.80914e-06
3.56915e-07
-5.12738e-06
2.25386e-07
-4.27796e-06
1.11671e-07
-3.2592e-06
3.13486e-08
-2.07491e-06
-7.3626e-07
4.07168e-08
8.01587e-07
1.46324e-07
2.25274e-06
2.98694e-07
3.53144e-06
4.79499e-07
4.62529e-06
6.71495e-07
5.52887e-06
8.59521e-07
6.2426e-06
1.03122e-06
6.77222e-06
1.1774e-06
7.12787e-06
1.29209e-06
7.32295e-06
1.37228e-06
7.37294e-06
1.41755e-06
7.29437e-06
1.42956e-06
7.10395e-06
1.41151e-06
6.8178e-06
1.36765e-06
6.45103e-06
1.30284e-06
6.01741e-06
1.22217e-06
5.52918e-06
1.13071e-06
4.99703e-06
1.03326e-06
4.43017e-06
9.3423e-07
3.83641e-06
8.37549e-07
3.22235e-06
7.46591e-07
2.59349e-06
6.64175e-07
1.9545e-06
5.92549e-07
1.30932e-06
5.33409e-07
6.61392e-07
4.8791e-07
1.38104e-08
4.56684e-07
-6.30517e-07
4.39857e-07
-1.26872e-06
4.37065e-07
-1.8978e-06
4.4746e-07
-2.51455e-06
4.69723e-07
-3.11538e-06
5.0207e-07
-3.69622e-06
5.4227e-07
-4.25241e-06
5.87662e-07
-4.77861e-06
6.35193e-07
-5.2687e-06
6.8148e-07
-5.71572e-06
7.22894e-07
-6.11182e-06
7.55688e-07
-6.44822e-06
7.76171e-07
-6.71524e-06
7.80928e-07
-6.90237e-06
7.67103e-07
-6.99837e-06
7.32718e-07
-6.99149e-06
6.77041e-07
-6.86978e-06
6.00948e-07
-6.6215e-06
5.07261e-07
-6.23569e-06
4.0099e-07
-5.70287e-06
2.89425e-07
-5.01582e-06
1.81991e-07
-4.17053e-06
8.98407e-08
-3.16704e-06
2.51382e-08
-2.0102e-06
-7.11122e-07
3.4854e-08
7.66733e-07
1.25838e-07
2.16176e-06
2.58135e-07
3.39914e-06
4.16698e-07
4.46673e-06
5.87204e-07
5.35836e-06
7.56827e-07
6.07297e-06
9.14841e-07
6.6142e-06
1.05296e-06
6.98975e-06
1.16547e-06
7.21044e-06
1.24907e-06
7.28933e-06
1.30268e-06
7.24077e-06
1.32701e-06
7.07961e-06
1.32422e-06
6.82058e-06
1.2975e-06
6.47776e-06
1.25067e-06
6.06424e-06
1.18792e-06
5.59193e-06
1.1135e-06
5.07144e-06
1.03156e-06
4.5121e-06
9.45989e-07
3.92199e-06
8.60292e-07
3.30804e-06
7.77566e-07
2.67622e-06
7.00437e-07
2.03163e-06
6.31062e-07
1.37869e-06
5.71117e-07
7.21336e-07
5.21815e-07
6.31129e-08
4.83909e-07
-5.92611e-07
4.57709e-07
-1.24252e-06
4.43095e-07
-1.88319e-06
4.39526e-07
-2.51098e-06
4.46047e-07
-3.12191e-06
4.61306e-07
-3.71148e-06
4.83563e-07
-4.27467e-06
5.10717e-07
-4.80577e-06
5.40335e-07
-5.29832e-06
5.69711e-07
-5.7451e-06
5.95937e-07
-6.13804e-06
6.16016e-07
-6.46829e-06
6.27003e-07
-6.72623e-06
6.26188e-07
-6.90156e-06
6.11325e-07
-6.98351e-06
5.80882e-07
-6.96105e-06
5.34326e-07
-6.82322e-06
4.72395e-07
-6.55957e-06
3.97345e-07
-6.16064e-06
3.13116e-07
-5.61864e-06
2.2537e-07
-4.92807e-06
1.4137e-07
-4.08653e-06
6.96441e-08
-3.09532e-06
1.94522e-08
-1.96001e-06
-6.9167e-07
2.93863e-08
7.37347e-07
1.06523e-07
2.08462e-06
2.19428e-07
3.28623e-06
3.5589e-07
4.33027e-06
5.04166e-07
5.21009e-06
6.53579e-07
5.92356e-06
7.95003e-07
6.47278e-06
9.2117e-07
6.86358e-06
1.02681e-06
7.1048e-06
1.10861e-06
7.20753e-06
1.16509e-06
7.1843e-06
1.1963e-06
7.04841e-06
1.20356e-06
6.81332e-06
1.18915e-06
6.49216e-06
1.15602e-06
6.09737e-06
1.10748e-06
5.64047e-06
1.04703e-06
5.1319e-06
9.78143e-07
4.58099e-06
9.04152e-07
3.99598e-06
8.28128e-07
3.38407e-06
7.52827e-07
2.75152e-06
6.80642e-07
2.10381e-06
6.13584e-07
1.44575e-06
5.53275e-07
7.81645e-07
5.0095e-07
1.15438e-07
4.57459e-07
-5.4912e-07
4.23281e-07
-1.20834e-06
3.98534e-07
-1.85844e-06
3.82979e-07
-2.49543e-06
3.76035e-07
-3.11496e-06
3.76786e-07
-3.71223e-06
3.83991e-07
-4.28188e-06
3.9611e-07
-4.81789e-06
4.11323e-07
-5.31353e-06
4.27579e-07
-5.76135e-06
4.42653e-07
-6.15312e-06
4.54229e-07
-6.47987e-06
4.60017e-07
-6.73201e-06
4.57892e-07
-6.89943e-06
4.46067e-07
-6.97168e-06
4.23288e-07
-6.93827e-06
3.89049e-07
-6.78898e-06
3.43792e-07
-6.51431e-06
2.89092e-07
-6.10594e-06
2.27771e-07
-5.55732e-06
1.63926e-07
-4.86423e-06
1.02822e-07
-4.02543e-06
5.06547e-08
-3.04315e-06
1.415e-08
-1.92351e-06
-6.7752e-07
2.42149e-08
7.13132e-07
8.80916e-08
2.02074e-06
1.82133e-07
3.19219e-06
2.96625e-07
4.21577e-06
4.22143e-07
5.08457e-06
5.49999e-07
5.7957e-06
6.72621e-07
6.35016e-06
7.83813e-07
6.75239e-06
8.78903e-07
7.00971e-06
9.54756e-07
7.13168e-06
1.00969e-06
7.12937e-06
1.0433e-06
7.0148e-06
1.05627e-06
6.80035e-06
1.05014e-06
6.49829e-06
1.02706e-06
6.12046e-06
9.89557e-07
5.67797e-06
9.40415e-07
5.18104e-06
8.82452e-07
4.63895e-06
8.18431e-07
4.06e-06
7.50957e-07
3.45154e-06
6.82413e-07
2.82007e-06
6.14918e-07
2.17131e-06
5.50303e-07
1.51037e-06
4.90096e-07
8.41852e-07
4.3552e-07
1.70014e-07
3.87499e-07
-5.01098e-07
3.46659e-07
-1.1675e-06
3.1334e-07
-1.82512e-06
2.87601e-07
-2.46969e-06
2.69226e-07
-3.09659e-06
2.57732e-07
-3.70074e-06
2.52379e-07
-4.27652e-06
2.52177e-07
-4.81768e-06
2.5591e-07
-5.31727e-06
2.62156e-07
-5.7676e-06
2.69334e-07
-6.16029e-06
2.75759e-07
-6.4863e-06
2.79719e-07
-6.73598e-06
2.79578e-07
-6.89929e-06
2.739e-07
-6.966e-06
2.61585e-07
-6.92596e-06
2.42031e-07
-6.76943e-06
2.1528e-07
-6.48756e-06
1.82151e-07
-6.07282e-06
1.44334e-07
-5.5195e-06
1.04409e-07
-4.8243e-06
6.57862e-08
-3.9868e-06
3.25369e-08
-3.0099e-06
9.12253e-09
-1.90009e-06
-6.68398e-07
1.92614e-08
6.93871e-07
7.03116e-08
1.96969e-06
1.45882e-07
3.11662e-06
2.38513e-07
4.12314e-06
3.40897e-07
4.98219e-06
4.46207e-07
5.69039e-06
5.48373e-07
6.24799e-06
6.42308e-07
6.65845e-06
7.2403e-07
6.92799e-06
7.9071e-07
7.06499e-06
8.40639e-07
7.07944e-06
8.73126e-07
6.98231e-06
8.88364e-07
6.78511e-06
8.87261e-07
6.49939e-06
8.71277e-07
6.13645e-06
8.42253e-07
5.70699e-06
8.02268e-07
5.22102e-06
7.53512e-07
4.68771e-06
6.9818e-07
4.11533e-06
6.38391e-07
3.51133e-06
5.76132e-07
2.88232e-06
5.13218e-07
2.23422e-06
4.5126e-07
1.57233e-06
3.9166e-07
9.01452e-07
3.35601e-07
2.26073e-07
2.84049e-07
-4.49546e-07
2.37756e-07
-1.12121e-06
1.97264e-07
-1.78463e-06
1.62915e-07
-2.43534e-06
1.34847e-07
-3.06852e-06
1.13002e-07
-3.67889e-06
9.71285e-08
-4.26065e-06
8.67808e-08
-4.80734e-06
8.13274e-08
-5.31181e-06
7.99597e-08
-5.76623e-06
8.17104e-08
-6.16205e-06
8.54822e-08
-6.49007e-06
9.00906e-08
-6.74058e-06
9.4323e-08
-6.90352e-06
9.7015e-08
-6.9687e-06
9.71426e-08
-6.92608e-06
9.39265e-08
-6.76621e-06
8.6939e-08
-6.48057e-06
7.6204e-08
-6.06208e-06
6.22722e-08
-5.50557e-06
4.6256e-08
-4.80828e-06
2.98067e-08
-3.97035e-06
1.50225e-08
-2.99512e-06
4.28366e-09
-1.88935e-06
-6.64114e-07
1.44611e-08
6.7941e-07
5.29887e-08
1.93116e-06
1.10366e-07
3.05925e-06
1.81212e-07
4.0523e-06
2.60194e-07
4.9032e-06
3.42247e-07
5.60834e-06
4.22769e-07
6.16747e-06
4.97787e-07
6.58344e-06
5.64077e-07
6.8617e-06
6.19213e-07
7.00986e-06
6.61577e-07
7.03707e-06
6.90307e-07
6.95358e-06
7.05219e-07
6.7702e-06
7.06706e-07
6.49791e-06
6.95619e-07
6.14753e-06
6.73154e-07
5.72946e-06
6.40742e-07
5.25343e-06
5.99956e-07
4.72849e-06
5.52426e-07
4.16286e-06
4.99778e-07
3.56398e-06
4.43581e-07
2.93852e-06
3.85315e-07
2.29249e-06
3.26347e-07
1.63129e-06
2.6792e-07
9.59878e-07
2.11146e-07
2.82847e-07
1.57004e-07
-3.95404e-07
1.06346e-07
-1.07055e-06
5.98965e-08
-1.73818e-06
1.82566e-08
-2.3937e-06
-1.80953e-08
-3.03217e-06
-4.88057e-08
-3.64818e-06
-7.36508e-08
-4.23581e-06
-9.25431e-08
-4.78844e-06
-1.05541e-07
-5.29882e-06
-1.12854e-07
-5.75892e-06
-1.14856e-07
-6.16004e-06
-1.12079e-07
-6.49284e-06
-1.05212e-07
-6.74745e-06
-9.50799e-08
-6.91366e-06
-8.26175e-08
-6.98116e-06
-6.8821e-08
-6.93988e-06
-5.46902e-08
-6.78034e-06
-4.11589e-08
-6.4941e-06
-2.90209e-08
-6.07422e-06
-1.88612e-08
-5.51573e-06
-1.10046e-08
-4.81614e-06
-5.49367e-09
-3.97586e-06
-2.10911e-09