/*--------------------------------*- C++ -*----------------------------------*\
  =========                 |
  \\      /  F ield         | OpenFOAM: The Open Source CFD Toolbox
   \\    /   O peration     | Website:  https://openfoam.org
    \\  /    A nd           | Version:  7
     \\/     M anipulation  |
\*---------------------------------------------------------------------------*/
FoamFile
{
    version     2.0;
    format      ascii;
    class       volScalarField;
    location    "0.013";
    object      p;
}
// * * * * * * * * * * * * * * * * * * * * * * * * * * * * * * * * * * * * * //

dimensions      [0 2 -2 0 0 0 0];

internalField   nonuniform List<scalar> 
2500
(
2.06792e-05
-6.50858
-9.28796
-10.4764
-11.1336
-11.5316
-11.7871
-11.9641
-12.0947
-12.1955
-12.2759
-12.3418
-12.3968
-12.4438
-12.4844
-12.5202
-12.552
-12.5807
-12.6069
-12.6311
-12.6536
-12.6747
-12.6948
-12.7141
-12.7327
-12.7508
-12.7686
-12.7863
-12.8041
-12.822
-12.8404
-12.8593
-12.8792
-12.9003
-12.923
-12.9481
-12.9761
-13.0084
-13.0463
-13.0923
-13.1496
-13.2238
-13.3236
-13.4649
-13.6792
-14.028
-14.6192
-15.7131
-18.3761
-24.7603
-4.95871
-7.67535
-9.17763
-10.1323
-10.7938
-11.2471
-11.5619
-11.7885
-11.9575
-12.0874
-12.1899
-12.2728
-12.3412
-12.3987
-12.4478
-12.4904
-12.5279
-12.5614
-12.5916
-12.6192
-12.6448
-12.6687
-12.6913
-12.7129
-12.7338
-12.7542
-12.7744
-12.7946
-12.815
-12.8359
-12.8576
-12.8804
-12.9046
-12.9309
-12.9599
-12.9925
-13.0298
-13.0734
-13.1258
-13.19
-13.2709
-13.3759
-13.516
-13.709
-13.9845
-14.3908
-14.9937
-15.8761
-17.2926
-19.8914
-7.93381
-8.76149
-9.55815
-10.2346
-10.7697
-11.1742
-11.4779
-11.7087
-11.8869
-12.027
-12.139
-12.2303
-12.3058
-12.3693
-12.4235
-12.4705
-12.5116
-12.5482
-12.5812
-12.6112
-12.6389
-12.6647
-12.6892
-12.7125
-12.7351
-12.7573
-12.7792
-12.8013
-12.8237
-12.8467
-12.8708
-12.8964
-12.9238
-12.9537
-12.987
-13.0245
-13.0677
-13.1182
-13.1786
-13.2523
-13.3439
-13.4604
-13.6114
-13.8109
-14.0784
-14.4407
-14.9269
-15.5496
-16.2917
-17.0541
-9.4493
-9.65629
-10.0703
-10.5109
-10.8995
-11.2218
-11.4833
-11.6937
-11.8634
-12.0009
-12.1136
-12.2069
-12.285
-12.3513
-12.4081
-12.4574
-12.5008
-12.5394
-12.5741
-12.6058
-12.635
-12.6623
-12.6881
-12.7127
-12.7366
-12.7601
-12.7834
-12.8068
-12.8307
-12.8555
-12.8814
-12.9089
-12.9386
-12.971
-13.0071
-13.0477
-13.0942
-13.1483
-13.2123
-13.289
-13.3825
-13.4981
-13.6424
-13.8241
-14.0531
-14.3393
-14.6888
-15.0896
-15.468
-15.6437
-10.3405
-10.3316
-10.5296
-10.8019
-11.0724
-11.3183
-11.5326
-11.7149
-11.8683
-11.997
-12.1052
-12.1966
-12.2743
-12.341
-12.3987
-12.4491
-12.4937
-12.5335
-12.5694
-12.6021
-12.6324
-12.6607
-12.6875
-12.7132
-12.7381
-12.7625
-12.7869
-12.8114
-12.8365
-12.8625
-12.8898
-12.9188
-12.95
-12.9841
-13.0219
-13.0642
-13.1123
-13.1676
-13.232
-13.3079
-13.3981
-13.5063
-13.6364
-13.7927
-13.9784
-14.194
-14.4338
-14.6775
-14.8529
-14.831
-10.9114
-10.8273
-10.9093
-11.0719
-11.2556
-11.438
-11.6081
-11.7606
-11.8945
-12.0107
-12.111
-12.1977
-12.2727
-12.3379
-12.395
-12.4453
-12.4901
-12.5302
-12.5667
-12.6
-12.6309
-12.6599
-12.6873
-12.7136
-12.7392
-12.7644
-12.7894
-12.8148
-12.8407
-12.8675
-12.8956
-12.9254
-12.9575
-12.9924
-13.0308
-13.0735
-13.1215
-13.176
-13.2384
-13.3105
-13.394
-13.4911
-13.6037
-13.7329
-13.8784
-14.0358
-14.1957
-14.338
-14.4067
-14.3202
-11.2962
-11.1943
-11.2171
-11.3107
-11.4328
-11.5652
-11.6971
-11.8215
-11.9353
-12.0374
-12.1281
-12.2081
-12.2787
-12.341
-12.3963
-12.4455
-12.4896
-12.5295
-12.5658
-12.5993
-12.6303
-12.6595
-12.6872
-12.7139
-12.7398
-12.7654
-12.7908
-12.8166
-12.8428
-12.87
-12.8985
-12.9286
-12.9608
-12.9957
-13.0337
-13.0757
-13.1223
-13.1744
-13.2331
-13.2994
-13.3744
-13.4589
-13.5534
-13.6573
-13.7681
-13.8803
-13.9843
-14.064
-14.0797
-13.9811
-11.5701
-11.4715
-11.4648
-11.5158
-11.5951
-11.6898
-11.7903
-11.89
-11.9849
-12.0728
-12.1531
-12.2256
-12.2908
-12.3492
-12.4017
-12.449
-12.4918
-12.5308
-12.5665
-12.5996
-12.6304
-12.6595
-12.6872
-12.7138
-12.7398
-12.7654
-12.7909
-12.8167
-12.843
-12.8701
-12.8984
-12.9283
-12.9601
-12.9942
-13.0312
-13.0715
-13.1157
-13.1645
-13.2183
-13.2779
-13.3437
-13.4156
-13.4933
-13.5752
-13.6582
-13.7367
-13.8026
-13.8442
-13.8345
-13.7419
-11.775
-11.6858
-11.6648
-11.6895
-11.7398
-11.8064
-11.8822
-11.961
-12.039
-12.1136
-12.1835
-12.2481
-12.3073
-12.3613
-12.4105
-12.4553
-12.4962
-12.5338
-12.5685
-12.6008
-12.631
-12.6597
-12.687
-12.7133
-12.7391
-12.7644
-12.7897
-12.8152
-12.8411
-12.8678
-12.8956
-12.9248
-12.9556
-12.9885
-13.0237
-13.0618
-13.103
-13.1478
-13.1964
-13.249
-13.3057
-13.3659
-13.4289
-13.4926
-13.5539
-13.608
-13.6485
-13.6673
-13.646
-13.5641
-11.9338
-11.855
-11.8277
-11.8363
-11.8668
-11.9131
-11.9695
-12.0312
-12.0945
-12.1571
-12.2173
-12.2741
-12.3272
-12.3764
-12.4218
-12.4637
-12.5024
-12.5382
-12.5716
-12.6027
-12.6321
-12.6599
-12.6866
-12.7124
-12.7376
-12.7624
-12.7872
-12.8121
-12.8374
-12.8633
-12.8902
-12.9183
-12.9478
-12.979
-13.0122
-13.0476
-13.0854
-13.1259
-13.1692
-13.2151
-13.2633
-13.3133
-13.3638
-13.4129
-13.4579
-13.4945
-13.5182
-13.5235
-13.4976
-13.4265
-12.0603
-11.9911
-11.9616
-11.9606
-11.9778
-12.0093
-12.0508
-12.0987
-12.1497
-12.2017
-12.2529
-12.3024
-12.3495
-12.3938
-12.4353
-12.474
-12.5101
-12.5439
-12.5755
-12.6053
-12.6334
-12.6603
-12.6861
-12.711
-12.7354
-12.7595
-12.7834
-12.8075
-12.8319
-12.8569
-12.8826
-12.9093
-12.9372
-12.9664
-12.9973
-13.0298
-13.0642
-13.1005
-13.1386
-13.1782
-13.219
-13.2601
-13.3004
-13.338
-13.3707
-13.395
-13.4078
-13.4052
-13.3782
-13.3168
-12.163
-12.1023
-12.073
-12.0663
-12.0747
-12.0955
-12.1257
-12.1626
-12.2033
-12.2461
-12.2894
-12.332
-12.3733
-12.4128
-12.4503
-12.4857
-12.5191
-12.5506
-12.5803
-12.6084
-12.6351
-12.6607
-12.6854
-12.7093
-12.7327
-12.7558
-12.7787
-12.8017
-12.825
-12.8487
-12.8731
-12.8982
-12.9243
-12.9514
-12.9798
-13.0095
-13.0404
-13.0726
-13.1059
-13.1399
-13.1742
-13.2079
-13.2399
-13.2687
-13.2922
-13.308
-13.3136
-13.3066
-13.2804
-13.2273
-12.2477
-12.1946
-12.1667
-12.1568
-12.1593
-12.1725
-12.1942
-12.2223
-12.2547
-12.2896
-12.3258
-12.3622
-12.3981
-12.433
-12.4666
-12.4986
-12.5292
-12.5582
-12.5858
-12.6121
-12.6372
-12.6614
-12.6847
-12.7074
-12.7296
-12.7514
-12.7732
-12.795
-12.8169
-12.8393
-12.8621
-12.8855
-12.9096
-12.9346
-12.9605
-12.9873
-13.0149
-13.0433
-13.0723
-13.1014
-13.1301
-13.1576
-13.183
-13.2049
-13.2218
-13.2316
-13.2327
-13.2235
-13.199
-13.153
-12.3185
-12.2722
-12.2462
-12.2348
-12.2335
-12.2413
-12.2567
-12.2779
-12.3034
-12.3317
-12.3618
-12.3926
-12.4235
-12.4541
-12.4838
-12.5125
-12.5401
-12.5666
-12.592
-12.6163
-12.6397
-12.6622
-12.684
-12.7053
-12.7261
-12.7467
-12.7671
-12.7875
-12.808
-12.8288
-12.8499
-12.8716
-12.8937
-12.9165
-12.9399
-12.9639
-12.9885
-13.0134
-13.0385
-13.0633
-13.0873
-13.1098
-13.13
-13.1467
-13.1586
-13.1644
-13.1627
-13.1526
-13.1302
-13.0905
-12.3783
-12.3381
-12.3144
-12.3025
-12.299
-12.303
-12.3136
-12.3294
-12.3493
-12.3722
-12.3969
-12.4228
-12.4492
-12.4756
-12.5017
-12.5272
-12.5519
-12.5758
-12.5989
-12.6211
-12.6426
-12.6634
-12.6836
-12.7033
-12.7226
-12.7417
-12.7606
-12.7795
-12.7985
-12.8176
-12.8371
-12.8568
-12.877
-12.8976
-12.9186
-12.94
-12.9617
-12.9835
-13.0051
-13.0262
-13.0462
-13.0647
-13.0807
-13.0934
-13.1018
-13.1049
-13.1016
-13.0914
-13.0712
-13.037
-12.4295
-12.3947
-12.3735
-12.3618
-12.357
-12.3584
-12.3655
-12.3772
-12.3926
-12.4108
-12.431
-12.4526
-12.4749
-12.4976
-12.5202
-12.5425
-12.5644
-12.5857
-12.6064
-12.6265
-12.646
-12.6649
-12.6834
-12.7014
-12.7192
-12.7366
-12.754
-12.7713
-12.7886
-12.8061
-12.8237
-12.8416
-12.8598
-12.8782
-12.897
-12.9159
-12.9349
-12.9538
-12.9724
-12.9903
-13.0071
-13.0222
-13.035
-13.0447
-13.0506
-13.0518
-13.0477
-13.038
-13.0201
-12.9908
-12.4738
-12.4439
-12.4252
-12.4142
-12.4087
-12.4085
-12.413
-12.4215
-12.4333
-12.4477
-12.464
-12.4818
-12.5005
-12.5196
-12.539
-12.5583
-12.5774
-12.5962
-12.6145
-12.6324
-12.6499
-12.6669
-12.6835
-12.6998
-12.7159
-12.7317
-12.7474
-12.763
-12.7786
-12.7943
-12.8102
-12.8262
-12.8424
-12.8587
-12.8753
-12.8919
-12.9085
-12.9248
-12.9407
-12.9559
-12.9699
-12.9823
-12.9925
-13
-13.0041
-13.0042
-12.9998
-12.9909
-12.9753
-12.9503
-12.5127
-12.4872
-12.4709
-12.4609
-12.4553
-12.454
-12.4566
-12.4627
-12.4716
-12.4829
-12.4959
-12.5103
-12.5257
-12.5417
-12.5581
-12.5746
-12.591
-12.6073
-12.6233
-12.639
-12.6543
-12.6694
-12.6841
-12.6986
-12.7128
-12.7269
-12.7409
-12.7548
-12.7687
-12.7826
-12.7966
-12.8107
-12.825
-12.8393
-12.8538
-12.8682
-12.8825
-12.8965
-12.9101
-12.9229
-12.9345
-12.9447
-12.9529
-12.9587
-12.9615
-12.961
-12.9568
-12.9488
-12.9354
-12.9144
-12.5472
-12.5258
-12.5119
-12.503
-12.4976
-12.4957
-12.497
-12.5012
-12.5078
-12.5164
-12.5267
-12.5382
-12.5507
-12.5638
-12.5774
-12.5912
-12.605
-12.6189
-12.6326
-12.646
-12.6593
-12.6724
-12.6852
-12.6978
-12.7102
-12.7225
-12.7347
-12.7468
-12.7589
-12.771
-12.7832
-12.7954
-12.8077
-12.8201
-12.8326
-12.8449
-12.8571
-12.8691
-12.8805
-12.8912
-12.9009
-12.9092
-12.9158
-12.9203
-12.9223
-12.9215
-12.9176
-12.9107
-12.8994
-12.882
-12.5783
-12.5607
-12.549
-12.5413
-12.5364
-12.5342
-12.5346
-12.5374
-12.5421
-12.5486
-12.5564
-12.5654
-12.5753
-12.5858
-12.5968
-12.6081
-12.6195
-12.6309
-12.6424
-12.6537
-12.6649
-12.6759
-12.6867
-12.6974
-12.708
-12.7184
-12.7288
-12.7391
-12.7494
-12.7597
-12.77
-12.7804
-12.7908
-12.8013
-12.8118
-12.8222
-12.8324
-12.8424
-12.8519
-12.8608
-12.8687
-12.8755
-12.8808
-12.8844
-12.8858
-12.885
-12.8816
-12.8759
-12.8666
-12.8525
-12.6068
-12.5926
-12.583
-12.5766
-12.5723
-12.5701
-12.5699
-12.5716
-12.5748
-12.5795
-12.5853
-12.592
-12.5996
-12.6077
-12.6163
-12.6252
-12.6343
-12.6435
-12.6527
-12.6618
-12.6709
-12.6799
-12.6888
-12.6976
-12.7063
-12.7148
-12.7233
-12.7318
-12.7403
-12.7487
-12.7572
-12.7657
-12.7742
-12.7828
-12.7914
-12.7999
-12.8083
-12.8165
-12.8242
-12.8314
-12.8379
-12.8434
-12.8476
-12.8504
-12.8516
-12.8508
-12.8481
-12.8435
-12.8363
-12.8252
-12.6332
-12.6222
-12.6147
-12.6095
-12.6059
-12.6039
-12.6033
-12.6042
-12.6062
-12.6093
-12.6133
-12.6181
-12.6236
-12.6295
-12.6359
-12.6426
-12.6494
-12.6564
-12.6635
-12.6705
-12.6776
-12.6845
-12.6915
-12.6983
-12.705
-12.7117
-12.7184
-12.725
-12.7316
-12.7381
-12.7448
-12.7514
-12.7581
-12.7648
-12.7715
-12.7782
-12.7848
-12.7912
-12.7973
-12.803
-12.8081
-12.8124
-12.8158
-12.8181
-12.819
-12.8185
-12.8166
-12.8131
-12.8078
-12.7996
-12.6582
-12.6501
-12.6446
-12.6407
-12.6378
-12.6361
-12.6353
-12.6355
-12.6366
-12.6383
-12.6408
-12.6438
-12.6474
-12.6513
-12.6556
-12.6601
-12.6649
-12.6697
-12.6747
-12.6797
-12.6847
-12.6897
-12.6946
-12.6995
-12.7044
-12.7092
-12.7139
-12.7186
-12.7233
-12.728
-12.7328
-12.7375
-12.7423
-12.7472
-12.752
-12.7569
-12.7618
-12.7665
-12.771
-12.7753
-12.7792
-12.7825
-12.7851
-12.7869
-12.7877
-12.7876
-12.7864
-12.7842
-12.7806
-12.7752
-12.6821
-12.6769
-12.6732
-12.6706
-12.6685
-12.6671
-12.6662
-12.6659
-12.6661
-12.6668
-12.6678
-12.6692
-12.671
-12.6731
-12.6754
-12.6779
-12.6806
-12.6835
-12.6864
-12.6894
-12.6924
-12.6954
-12.6984
-12.7013
-12.7042
-12.7071
-12.7099
-12.7128
-12.7156
-12.7184
-12.7212
-12.7241
-12.727
-12.73
-12.733
-12.7361
-12.7392
-12.7423
-12.7453
-12.7481
-12.7508
-12.7531
-12.755
-12.7565
-12.7573
-12.7575
-12.7571
-12.7561
-12.7544
-12.7516
-12.7054
-12.7029
-12.7011
-12.6996
-12.6984
-12.6974
-12.6965
-12.6958
-12.6952
-12.6948
-12.6946
-12.6945
-12.6946
-12.6949
-12.6954
-12.696
-12.6967
-12.6976
-12.6985
-12.6995
-12.7005
-12.7016
-12.7026
-12.7036
-12.7046
-12.7056
-12.7065
-12.7074
-12.7083
-12.7092
-12.7101
-12.7111
-12.7121
-12.7132
-12.7143
-12.7156
-12.7169
-12.7183
-12.7198
-12.7213
-12.7228
-12.7241
-12.7254
-12.7265
-12.7273
-12.7279
-12.7283
-12.7286
-12.7286
-12.7285
-12.7284
-12.7286
-12.7285
-12.7283
-12.7279
-12.7273
-12.7264
-12.7254
-12.7241
-12.7228
-12.7213
-12.7198
-12.7183
-12.7169
-12.7156
-12.7143
-12.7132
-12.7121
-12.7111
-12.7101
-12.7092
-12.7083
-12.7074
-12.7065
-12.7056
-12.7046
-12.7036
-12.7026
-12.7016
-12.7005
-12.6995
-12.6985
-12.6976
-12.6967
-12.696
-12.6954
-12.6949
-12.6946
-12.6945
-12.6946
-12.6948
-12.6952
-12.6958
-12.6965
-12.6974
-12.6984
-12.6996
-12.7011
-12.7029
-12.7054
-12.7516
-12.7543
-12.7561
-12.7571
-12.7575
-12.7573
-12.7565
-12.755
-12.7531
-12.7508
-12.7481
-12.7453
-12.7423
-12.7392
-12.7361
-12.733
-12.73
-12.727
-12.7241
-12.7212
-12.7184
-12.7156
-12.7128
-12.7099
-12.7071
-12.7042
-12.7013
-12.6984
-12.6954
-12.6924
-12.6894
-12.6864
-12.6835
-12.6806
-12.6779
-12.6754
-12.6731
-12.671
-12.6693
-12.6678
-12.6668
-12.6661
-12.666
-12.6663
-12.6671
-12.6685
-12.6706
-12.6732
-12.6769
-12.6821
-12.7752
-12.7806
-12.7842
-12.7864
-12.7876
-12.7877
-12.7869
-12.7851
-12.7824
-12.7791
-12.7753
-12.771
-12.7665
-12.7618
-12.7569
-12.752
-12.7472
-12.7423
-12.7375
-12.7328
-12.728
-12.7233
-12.7186
-12.7139
-12.7092
-12.7044
-12.6995
-12.6946
-12.6897
-12.6847
-12.6797
-12.6747
-12.6697
-12.6649
-12.6601
-12.6556
-12.6513
-12.6474
-12.6438
-12.6408
-12.6384
-12.6366
-12.6355
-12.6353
-12.6361
-12.6378
-12.6407
-12.6446
-12.6501
-12.6582
-12.7996
-12.8078
-12.8131
-12.8166
-12.8185
-12.819
-12.8181
-12.8158
-12.8124
-12.8081
-12.803
-12.7973
-12.7912
-12.7848
-12.7782
-12.7715
-12.7648
-12.7581
-12.7514
-12.7448
-12.7381
-12.7316
-12.725
-12.7184
-12.7117
-12.7051
-12.6983
-12.6915
-12.6846
-12.6776
-12.6705
-12.6635
-12.6564
-12.6494
-12.6426
-12.6359
-12.6295
-12.6236
-12.6181
-12.6133
-12.6093
-12.6062
-12.6042
-12.6034
-12.6039
-12.6059
-12.6095
-12.6147
-12.6222
-12.6332
-12.8252
-12.8363
-12.8435
-12.8481
-12.8508
-12.8516
-12.8504
-12.8476
-12.8434
-12.8379
-12.8314
-12.8242
-12.8164
-12.8083
-12.7999
-12.7914
-12.7828
-12.7742
-12.7657
-12.7572
-12.7487
-12.7403
-12.7318
-12.7234
-12.7148
-12.7063
-12.6976
-12.6888
-12.6799
-12.6709
-12.6619
-12.6527
-12.6435
-12.6343
-12.6252
-12.6163
-12.6077
-12.5996
-12.592
-12.5853
-12.5795
-12.5748
-12.5716
-12.5699
-12.5701
-12.5723
-12.5766
-12.583
-12.5926
-12.6068
-12.8525
-12.8666
-12.8758
-12.8816
-12.885
-12.8858
-12.8844
-12.8808
-12.8755
-12.8687
-12.8608
-12.8519
-12.8424
-12.8324
-12.8222
-12.8118
-12.8013
-12.7908
-12.7804
-12.77
-12.7597
-12.7494
-12.7391
-12.7288
-12.7184
-12.708
-12.6974
-12.6867
-12.6759
-12.6649
-12.6537
-12.6424
-12.631
-12.6195
-12.6081
-12.5968
-12.5858
-12.5753
-12.5654
-12.5564
-12.5486
-12.5421
-12.5374
-12.5346
-12.5342
-12.5364
-12.5413
-12.549
-12.5607
-12.5783
-12.882
-12.8994
-12.9107
-12.9176
-12.9215
-12.9223
-12.9203
-12.9158
-12.9092
-12.9009
-12.8912
-12.8805
-12.8691
-12.8571
-12.8449
-12.8326
-12.8201
-12.8077
-12.7954
-12.7832
-12.771
-12.7589
-12.7468
-12.7347
-12.7225
-12.7102
-12.6978
-12.6852
-12.6724
-12.6593
-12.6461
-12.6326
-12.6189
-12.6051
-12.5912
-12.5774
-12.5638
-12.5507
-12.5382
-12.5267
-12.5164
-12.5078
-12.5012
-12.497
-12.4957
-12.4976
-12.503
-12.5119
-12.5259
-12.5472
-12.9144
-12.9354
-12.9487
-12.9568
-12.961
-12.9615
-12.9587
-12.9529
-12.9447
-12.9345
-12.9229
-12.9101
-12.8965
-12.8825
-12.8682
-12.8538
-12.8393
-12.825
-12.8107
-12.7966
-12.7826
-12.7687
-12.7548
-12.7409
-12.7269
-12.7128
-12.6986
-12.6841
-12.6694
-12.6543
-12.639
-12.6233
-12.6073
-12.591
-12.5746
-12.5581
-12.5418
-12.5257
-12.5104
-12.4959
-12.4829
-12.4716
-12.4627
-12.4567
-12.454
-12.4553
-12.4609
-12.4709
-12.4873
-12.5127
-12.9503
-12.9753
-12.9908
-12.9998
-13.0042
-13.0041
-13
-12.9925
-12.9823
-12.9699
-12.9559
-12.9407
-12.9248
-12.9085
-12.8919
-12.8753
-12.8587
-12.8424
-12.8262
-12.8102
-12.7943
-12.7786
-12.763
-12.7474
-12.7317
-12.7159
-12.6998
-12.6835
-12.6669
-12.6499
-12.6324
-12.6145
-12.5962
-12.5774
-12.5583
-12.539
-12.5196
-12.5005
-12.4818
-12.4641
-12.4477
-12.4333
-12.4215
-12.413
-12.4085
-12.4088
-12.4142
-12.4252
-12.4439
-12.4738
-12.9908
-13.0201
-13.038
-13.0477
-13.0518
-13.0506
-13.0447
-13.035
-13.0222
-13.0071
-12.9903
-12.9724
-12.9538
-12.9349
-12.9159
-12.897
-12.8782
-12.8598
-12.8416
-12.8237
-12.8061
-12.7886
-12.7713
-12.754
-12.7366
-12.7192
-12.7014
-12.6834
-12.6649
-12.646
-12.6265
-12.6064
-12.5857
-12.5644
-12.5425
-12.5202
-12.4976
-12.4749
-12.4526
-12.431
-12.4108
-12.3926
-12.3772
-12.3655
-12.3584
-12.357
-12.3619
-12.3735
-12.3947
-12.4295
-13.037
-13.0712
-13.0914
-13.1016
-13.1048
-13.1018
-13.0934
-13.0807
-13.0647
-13.0462
-13.0262
-13.0051
-12.9835
-12.9617
-12.94
-12.9186
-12.8976
-12.877
-12.8568
-12.8371
-12.8176
-12.7985
-12.7795
-12.7606
-12.7417
-12.7226
-12.7033
-12.6836
-12.6634
-12.6426
-12.6211
-12.5989
-12.5758
-12.5519
-12.5272
-12.5017
-12.4756
-12.4492
-12.4228
-12.3969
-12.3722
-12.3493
-12.3294
-12.3136
-12.303
-12.299
-12.3026
-12.3144
-12.3381
-12.3784
-13.0905
-13.1302
-13.1526
-13.1627
-13.1644
-13.1586
-13.1467
-13.13
-13.1098
-13.0873
-13.0633
-13.0385
-13.0134
-12.9885
-12.964
-12.9399
-12.9165
-12.8937
-12.8716
-12.8499
-12.8288
-12.808
-12.7875
-12.7671
-12.7467
-12.7261
-12.7053
-12.6841
-12.6622
-12.6397
-12.6163
-12.592
-12.5666
-12.5401
-12.5125
-12.4838
-12.4541
-12.4236
-12.3926
-12.3618
-12.3317
-12.3034
-12.2779
-12.2567
-12.2413
-12.2336
-12.2348
-12.2462
-12.2722
-12.3185
-13.153
-13.199
-13.2235
-13.2327
-13.2316
-13.2218
-13.2049
-13.183
-13.1576
-13.1301
-13.1014
-13.0723
-13.0433
-13.0149
-12.9873
-12.9605
-12.9346
-12.9096
-12.8855
-12.8621
-12.8393
-12.8169
-12.795
-12.7732
-12.7514
-12.7296
-12.7074
-12.6847
-12.6614
-12.6372
-12.6121
-12.5858
-12.5582
-12.5292
-12.4986
-12.4666
-12.433
-12.3981
-12.3622
-12.3258
-12.2896
-12.2547
-12.2223
-12.1943
-12.1725
-12.1593
-12.1568
-12.1667
-12.1947
-12.2478
-13.2273
-13.2804
-13.3066
-13.3136
-13.308
-13.2922
-13.2687
-13.2399
-13.2079
-13.1742
-13.1399
-13.1059
-13.0726
-13.0404
-13.0095
-12.9798
-12.9514
-12.9243
-12.8982
-12.8731
-12.8487
-12.825
-12.8017
-12.7787
-12.7558
-12.7327
-12.7093
-12.6854
-12.6607
-12.6352
-12.6084
-12.5803
-12.5506
-12.5191
-12.4857
-12.4503
-12.4128
-12.3733
-12.332
-12.2894
-12.2461
-12.2034
-12.1626
-12.1258
-12.0955
-12.0747
-12.0663
-12.0731
-12.1024
-12.1631
-13.3168
-13.3782
-13.4052
-13.4078
-13.395
-13.3707
-13.338
-13.3004
-13.2601
-13.219
-13.1782
-13.1386
-13.1005
-13.0642
-13.0298
-12.9973
-12.9664
-12.9372
-12.9093
-12.8826
-12.8569
-12.8319
-12.8075
-12.7834
-12.7595
-12.7354
-12.711
-12.6861
-12.6603
-12.6334
-12.6053
-12.5755
-12.5439
-12.5102
-12.474
-12.4353
-12.3938
-12.3495
-12.3024
-12.2529
-12.2017
-12.1498
-12.0987
-12.0509
-12.0093
-11.9778
-11.9606
-11.9616
-11.9911
-12.0603
-13.4265
-13.4976
-13.5235
-13.5182
-13.4945
-13.4579
-13.4129
-13.3638
-13.3133
-13.2633
-13.2151
-13.1692
-13.126
-13.0854
-13.0476
-13.0122
-12.979
-12.9478
-12.9183
-12.8902
-12.8633
-12.8374
-12.8121
-12.7872
-12.7624
-12.7376
-12.7124
-12.6866
-12.6599
-12.6321
-12.6027
-12.5716
-12.5383
-12.5024
-12.4638
-12.4219
-12.3764
-12.3272
-12.2741
-12.2173
-12.1571
-12.0946
-12.0312
-11.9695
-11.9131
-11.8668
-11.8363
-11.8277
-11.855
-11.9338
-13.5641
-13.646
-13.6673
-13.6485
-13.608
-13.5539
-13.4926
-13.4289
-13.3659
-13.3057
-13.249
-13.1964
-13.1478
-13.103
-13.0618
-13.0237
-12.9885
-12.9556
-12.9248
-12.8956
-12.8678
-12.8411
-12.8152
-12.7897
-12.7644
-12.7391
-12.7134
-12.687
-12.6597
-12.631
-12.6008
-12.5685
-12.5338
-12.4962
-12.4553
-12.4105
-12.3613
-12.3073
-12.2481
-12.1835
-12.1136
-12.039
-11.961
-11.8822
-11.8065
-11.7398
-11.6895
-11.6649
-11.6858
-11.775
-13.7419
-13.8345
-13.8442
-13.8026
-13.7367
-13.6582
-13.5752
-13.4933
-13.4156
-13.3437
-13.2779
-13.2184
-13.1645
-13.1157
-13.0715
-13.0312
-12.9942
-12.9601
-12.9283
-12.8985
-12.8701
-12.843
-12.8167
-12.7909
-12.7654
-12.7398
-12.7138
-12.6872
-12.6595
-12.6304
-12.5996
-12.5665
-12.5308
-12.4918
-12.449
-12.4017
-12.3492
-12.2908
-12.2256
-12.1531
-12.0729
-11.9849
-11.8901
-11.7904
-11.6898
-11.5952
-11.5158
-11.4648
-11.4716
-11.5701
-13.9811
-14.0797
-14.064
-13.9843
-13.8803
-13.7681
-13.6573
-13.5534
-13.4589
-13.3744
-13.2994
-13.2331
-13.1744
-13.1223
-13.0757
-13.0337
-12.9957
-12.9608
-12.9286
-12.8985
-12.87
-12.8428
-12.8166
-12.7909
-12.7654
-12.7398
-12.7139
-12.6872
-12.6595
-12.6303
-12.5993
-12.5658
-12.5295
-12.4896
-12.4455
-12.3963
-12.3411
-12.2787
-12.2081
-12.1281
-12.0374
-11.9353
-11.8216
-11.6971
-11.5653
-11.4328
-11.3107
-11.2171
-11.1943
-11.2962
-14.3202
-14.4067
-14.338
-14.1957
-14.0358
-13.8784
-13.733
-13.6037
-13.4911
-13.394
-13.3105
-13.2384
-13.176
-13.1215
-13.0735
-13.0308
-12.9924
-12.9575
-12.9254
-12.8956
-12.8675
-12.8407
-12.8148
-12.7895
-12.7644
-12.7392
-12.7136
-12.6873
-12.6599
-12.6309
-12.6
-12.5667
-12.5303
-12.4901
-12.4453
-12.395
-12.3379
-12.2727
-12.1977
-12.111
-12.0107
-11.8945
-11.7606
-11.6081
-11.438
-11.2556
-11.0719
-10.9093
-10.8273
-10.9114
-14.831
-14.8529
-14.6775
-14.4338
-14.194
-13.9784
-13.7927
-13.6364
-13.5063
-13.3981
-13.3079
-13.232
-13.1676
-13.1123
-13.0642
-13.0219
-12.9841
-12.95
-12.9188
-12.8898
-12.8625
-12.8365
-12.8114
-12.7869
-12.7625
-12.7381
-12.7132
-12.6875
-12.6607
-12.6324
-12.6021
-12.5694
-12.5335
-12.4937
-12.4491
-12.3987
-12.341
-12.2743
-12.1966
-12.1052
-11.997
-11.8683
-11.7149
-11.5326
-11.3184
-11.0724
-10.8019
-10.5296
-10.3316
-10.3405
-15.6437
-15.468
-15.0896
-14.6888
-14.3393
-14.0531
-13.8241
-13.6424
-13.4981
-13.3825
-13.289
-13.2123
-13.1483
-13.0942
-13.0477
-13.0071
-12.971
-12.9386
-12.9089
-12.8814
-12.8555
-12.8307
-12.8068
-12.7834
-12.7601
-12.7366
-12.7127
-12.6881
-12.6623
-12.635
-12.6058
-12.5742
-12.5394
-12.5008
-12.4574
-12.4081
-12.3513
-12.285
-12.2069
-12.1136
-12.001
-11.8634
-11.6937
-11.4833
-11.2218
-10.8995
-10.5109
-10.0703
-9.65631
-9.44933
-17.0541
-16.2917
-15.5496
-14.9269
-14.4407
-14.0784
-13.8109
-13.6114
-13.4604
-13.3439
-13.2523
-13.1786
-13.1182
-13.0677
-13.0245
-12.987
-12.9537
-12.9238
-12.8964
-12.8708
-12.8467
-12.8237
-12.8013
-12.7792
-12.7573
-12.7351
-12.7125
-12.6892
-12.6648
-12.6389
-12.6112
-12.5812
-12.5482
-12.5116
-12.4705
-12.4235
-12.3693
-12.3058
-12.2303
-12.139
-12.027
-11.8869
-11.7087
-11.4779
-11.1742
-10.7697
-10.2346
-9.55817
-8.76152
-7.93384
-19.8914
-17.2926
-15.8761
-14.9937
-14.3908
-13.9845
-13.709
-13.516
-13.3759
-13.2709
-13.19
-13.1258
-13.0735
-13.0298
-12.9925
-12.9599
-12.9309
-12.9046
-12.8804
-12.8576
-12.8359
-12.815
-12.7946
-12.7744
-12.7542
-12.7338
-12.7129
-12.6913
-12.6687
-12.6448
-12.6192
-12.5916
-12.5614
-12.5279
-12.4904
-12.4478
-12.3987
-12.3412
-12.2728
-12.19
-12.0874
-11.9575
-11.7885
-11.5619
-11.2472
-10.7938
-10.1323
-9.17766
-7.67538
-4.95875
-24.7603
-18.3761
-15.7131
-14.6192
-14.028
-13.6792
-13.4649
-13.3236
-13.2238
-13.1496
-13.0923
-13.0463
-13.0084
-12.9761
-12.9481
-12.923
-12.9003
-12.8792
-12.8593
-12.8404
-12.822
-12.8041
-12.7863
-12.7686
-12.7508
-12.7327
-12.7141
-12.6948
-12.6748
-12.6536
-12.6311
-12.6069
-12.5807
-12.552
-12.5202
-12.4845
-12.4438
-12.3969
-12.3418
-12.2759
-12.1955
-12.0947
-11.9641
-11.7871
-11.5316
-11.1337
-10.4764
-9.28799
-6.50862
-1.08679e-05
)
;

boundaryField
{
    movingWallTop
    {
        type            zeroGradient;
    }
    movingWallBottom
    {
        type            zeroGradient;
    }
    fixedWalls
    {
        type            zeroGradient;
    }
    frontAndBack
    {
        type            empty;
    }
}


// ************************************************************************* //
