/*--------------------------------*- C++ -*----------------------------------*\
  =========                 |
  \\      /  F ield         | OpenFOAM: The Open Source CFD Toolbox
   \\    /   O peration     | Website:  https://openfoam.org
    \\  /    A nd           | Version:  7
     \\/     M anipulation  |
\*---------------------------------------------------------------------------*/
FoamFile
{
    version     2.0;
    format      ascii;
    class       volVectorField;
    location    "0.0216";
    object      U;
}
// * * * * * * * * * * * * * * * * * * * * * * * * * * * * * * * * * * * * * //

dimensions      [0 1 -1 0 0 0 0];

internalField   nonuniform List<vector> 
2500
(
(2.4036e-05 -2.39193e-05 0)
(6.38481e-05 -2.34226e-05 0)
(6.83704e-05 -4.88199e-06 0)
(1.3047e-05 1.76433e-05 0)
(-0.000106093 3.9114e-05 0)
(-0.000283915 5.77328e-05 0)
(-0.000512312 7.29773e-05 0)
(-0.000782283 8.49024e-05 0)
(-0.00108472 9.37476e-05 0)
(-0.00141087 9.9796e-05 0)
(-0.00175254 0.000103329 0)
(-0.00210218 0.000104616 0)
(-0.00245293 0.000103905 0)
(-0.00279857 0.000101429 0)
(-0.00313357 9.74013e-05 0)
(-0.003453 9.20153e-05 0)
(-0.00375254 8.54488e-05 0)
(-0.00402839 7.78628e-05 0)
(-0.00427727 6.94031e-05 0)
(-0.00449639 6.02019e-05 0)
(-0.00468336 5.038e-05 0)
(-0.00483621 4.00487e-05 0)
(-0.00495336 2.93117e-05 0)
(-0.00503356 1.82671e-05 0)
(-0.00507593 7.01099e-06 0)
(-0.00507992 -4.36043e-06 0)
(-0.00504534 -1.57487e-05 0)
(-0.00497235 -2.70508e-05 0)
(-0.00486148 -3.81573e-05 0)
(-0.00471365 -4.89495e-05 0)
(-0.00453024 -5.92988e-05 0)
(-0.00431305 -6.90647e-05 0)
(-0.0040644 -7.80942e-05 0)
(-0.00378713 -8.62215e-05 0)
(-0.00348465 -9.32681e-05 0)
(-0.00316097 -9.90428e-05 0)
(-0.00282073 -0.000103343 0)
(-0.00246924 -0.000105954 0)
(-0.00211244 -0.000106653 0)
(-0.00175696 -0.000105208 0)
(-0.0014101 -0.000101379 0)
(-0.00107977 -9.492e-05 0)
(-0.000774421 -8.55852e-05 0)
(-0.00050298 -7.3138e-05 0)
(-0.000274563 -5.73959e-05 0)
(-9.79947e-05 -3.83736e-05 0)
(1.89324e-05 -1.66829e-05 0)
(7.16415e-05 5.83502e-06 0)
(6.48984e-05 2.41146e-05 0)
(2.40577e-05 2.40089e-05 0)
(2.38711e-05 -6.39589e-05 0)
(3.31295e-05 -3.21893e-05 0)
(-5.94485e-05 6.4852e-05 0)
(-0.000287958 0.000180838 0)
(-0.000660769 0.000295274 0)
(-0.00117095 0.000398525 0)
(-0.00180328 0.000486329 0)
(-0.00253854 0.000557296 0)
(-0.00335591 0.000611437 0)
(-0.00423433 0.000649442 0)
(-0.0051534 0.000672337 0)
(-0.00609382 0.000681309 0)
(-0.00703766 0.000677607 0)
(-0.0079685 0.000662481 0)
(-0.00887145 0.000637149 0)
(-0.00973321 0.000602774 0)
(-0.0105419 0.000560455 0)
(-0.0112872 0.000511216 0)
(-0.01196 0.000456009 0)
(-0.0125525 0.000395715 0)
(-0.0130582 0.000331157 0)
(-0.0134715 0.000263099 0)
(-0.013788 0.000192268 0)
(-0.0140044 0.000119359 0)
(-0.0141182 4.50521e-05 0)
(-0.0141279 -2.99717e-05 0)
(-0.0140331 -0.000105019 0)
(-0.0138342 -0.000179371 0)
(-0.013533 -0.00025227 0)
(-0.013132 -0.000322906 0)
(-0.0126352 -0.000390414 0)
(-0.0120475 -0.000453861 0)
(-0.0113756 -0.000512248 0)
(-0.0106272 -0.000564507 0)
(-0.00981167 -0.000609507 0)
(-0.00894003 -0.000646056 0)
(-0.00802481 -0.00067292 0)
(-0.0070802 -0.000688834 0)
(-0.00612206 -0.000692527 0)
(-0.00516781 -0.000682752 0)
(-0.00423633 -0.000658324 0)
(-0.00334776 -0.000618186 0)
(-0.00252315 -0.000561502 0)
(-0.00178388 -0.000487833 0)
(-0.00115081 -0.000397465 0)
(-0.000642794 -0.000292123 0)
(-0.000274322 -0.000176422 0)
(-5.1132e-05 -6.02604e-05 0)
(3.64942e-05 3.56176e-05 0)
(2.4419e-05 6.49156e-05 0)
(6.04961e-06 -6.96826e-05 0)
(-6.15386e-05 5.94481e-05 0)
(-0.000303743 0.000307805 0)
(-0.000742111 0.000596061 0)
(-0.00138186 0.000883117 0)
(-0.00221422 0.00114632 0)
(-0.00321958 0.00137383 0)
(-0.0043722 0.00156038 0)
(-0.00564334 0.00170441 0)
(-0.00700326 0.00180655 0)
(-0.00842249 0.00186865 0)
(-0.00987271 0.00189329 0)
(-0.0113272 0.00188341 0)
(-0.0127614 0.0018421 0)
(-0.0141526 0.00177251 0)
(-0.0154804 0.00167768 0)
(-0.0167268 0.00156058 0)
(-0.0178757 0.00142399 0)
(-0.0189129 0.00127053 0)
(-0.0198265 0.00110268 0)
(-0.0206061 0.000922739 0)
(-0.0212432 0.000732883 0)
(-0.0217309 0.000535182 0)
(-0.0220639 0.000331629 0)
(-0.0222385 0.000124181 0)
(-0.0222524 -8.52107e-05 0)
(-0.022105 -0.00029456 0)
(-0.0217971 -0.000501812 0)
(-0.0213314 -0.000704813 0)
(-0.0207121 -0.000901279 0)
(-0.0199452 -0.00108878 0)
(-0.0190389 -0.00126471 0)
(-0.018003 -0.0014263 0)
(-0.01685 -0.00157063 0)
(-0.0155942 -0.0016946 0)
(-0.0142525 -0.001795 0)
(-0.0128441 -0.00186855 0)
(-0.0113906 -0.00191192 0)
(-0.00991586 -0.00192186 0)
(-0.00844603 -0.00189528 0)
(-0.0070091 -0.00182941 0)
(-0.00563457 -0.00172201 0)
(-0.0043528 -0.0015717 0)
(-0.00319403 -0.00137849 0)
(-0.00218704 -0.00114464 0)
(-0.00135711 -0.000876242 0)
(-0.000722869 -0.000585897 0)
(-0.000291651 -0.000296938 0)
(-5.64067e-05 -5.10001e-05 0)
(7.01227e-06 7.28544e-05 0)
(-1.55149e-05 -1.73974e-05 0)
(-0.00017511 0.000285056 0)
(-0.000589507 0.00074533 0)
(-0.00125532 0.00126003 0)
(-0.00216843 0.00176998 0)
(-0.00331603 0.00223939 0)
(-0.00467402 0.0026478 0)
(-0.00621137 0.00298483 0)
(-0.0078934 0.00324646 0)
(-0.00968384 0.00343265 0)
(-0.0115463 0.00354586 0)
(-0.0134456 0.00359009 0)
(-0.015348 0.00357023 0)
(-0.0172222 0.00349164 0)
(-0.0190394 0.00335987 0)
(-0.0207734 0.00318048 0)
(-0.0224008 0.00295885 0)
(-0.0239006 0.00270017 0)
(-0.0252547 0.00240937 0)
(-0.0264472 0.00209109 0)
(-0.0274647 0.0017497 0)
(-0.028296 0.00138938 0)
(-0.0289321 0.00101408 0)
(-0.0293662 0.000627639 0)
(-0.0295932 0.000233826 0)
(-0.0296105 -0.000163602 0)
(-0.029417 -0.000560824 0)
(-0.0290142 -0.000953895 0)
(-0.0284053 -0.00133869 0)
(-0.027596 -0.00171086 0)
(-0.0265945 -0.00206578 0)
(-0.0254111 -0.00239854 0)
(-0.0240591 -0.00270394 0)
(-0.0225543 -0.00297648 0)
(-0.0209157 -0.00321042 0)
(-0.0191649 -0.00339985 0)
(-0.0173267 -0.00353874 0)
(-0.0154287 -0.00362112 0)
(-0.0135015 -0.0036412 0)
(-0.011578 -0.00359365 0)
(-0.00969359 -0.00347388 0)
(-0.00788488 -0.00327848 0)
(-0.00618936 -0.00300583 0)
(-0.00464395 -0.00265707 0)
(-0.00328342 -0.00223749 0)
(-0.0021383 -0.00175881 0)
(-0.00123158 -0.00124285 0)
(-0.000574421 -0.000726567 0)
(-0.000168624 -0.000269955 0)
(-1.42524e-05 2.36684e-05 0)
(-3.62085e-05 9.73901e-05 0)
(-0.00028936 0.000655285 0)
(-0.0008815 0.00138697 0)
(-0.00177932 0.0021751 0)
(-0.00296544 0.0029472 0)
(-0.00442079 0.00365655 0)
(-0.00611578 0.00427468 0)
(-0.00801415 0.004786 0)
(-0.010076 0.00518365 0)
(-0.0122597 0.00546659 0)
(-0.0145234 0.00563767 0)
(-0.0168262 0.00570224 0)
(-0.0191288 0.00566726 0)
(-0.0213947 0.00554057 0)
(-0.0235899 0.00533048 0)
(-0.0256833 0.0050454 0)
(-0.0276471 0.00469363 0)
(-0.0294565 0.00428321 0)
(-0.0310896 0.00382182 0)
(-0.0325276 0.00331677 0)
(-0.0337543 0.002775 0)
(-0.0347564 0.0022031 0)
(-0.035523 0.00160739 0)
(-0.0360458 0.000994009 0)
(-0.036319 0.000368968 0)
(-0.0363391 -0.000261714 0)
(-0.0361053 -0.00089193 0)
(-0.035619 -0.00151539 0)
(-0.0348844 -0.00212552 0)
(-0.0339083 -0.00271542 0)
(-0.0327005 -0.00327776 0)
(-0.0312735 -0.00380482 0)
(-0.0296431 -0.0042884 0)
(-0.0278283 -0.00471992 0)
(-0.0258517 -0.00509046 0)
(-0.023739 -0.00539086 0)
(-0.0215196 -0.00561189 0)
(-0.0192262 -0.00574448 0)
(-0.0168946 -0.00577999 0)
(-0.0145635 -0.00571058 0)
(-0.0122739 -0.00552978 0)
(-0.0100685 -0.00523308 0)
(-0.00799036 -0.00481891 0)
(-0.00608199 -0.00428994 0)
(-0.00438344 -0.00365489 0)
(-0.00293048 -0.00293138 0)
(-0.00175147 -0.00214987 0)
(-0.000863634 -0.00135885 0)
(-0.000281599 -0.000632092 0)
(-3.46661e-05 -8.72971e-05 0)
(-5.46772e-05 0.00027124 0)
(-0.00039699 0.00116843 0)
(-0.00116301 0.00223278 0)
(-0.00228914 0.00334083 0)
(-0.00374305 0.00441157 0)
(-0.00549763 0.00539011 0)
(-0.00751672 0.00624142 0)
(-0.00975833 0.00694534 0)
(-0.0121774 0.00749232 0)
(-0.0147275 0.00788031 0)
(-0.0173618 0.00811252 0)
(-0.0200347 0.00819569 0)
(-0.0227024 0.00813893 0)
(-0.0253238 0.00795277 0)
(-0.0278606 0.00764852 0)
(-0.0302779 0.00723777 0)
(-0.0325442 0.00673206 0)
(-0.0346312 0.00614268 0)
(-0.0365143 0.00548045 0)
(-0.0381718 0.00475575 0)
(-0.0395855 0.00397847 0)
(-0.0407401 0.00315802 0)
(-0.0416233 0.00230349 0)
(-0.0422255 0.00142366 0)
(-0.0425402 0.000527193 0)
(-0.0425634 -0.000377255 0)
(-0.042294 -0.00128091 0)
(-0.0417339 -0.00217473 0)
(-0.0408877 -0.00304931 0)
(-0.0397632 -0.00389476 0)
(-0.0383715 -0.00470064 0)
(-0.036727 -0.00545595 0)
(-0.0348477 -0.00614907 0)
(-0.0327551 -0.00676787 0)
(-0.0304747 -0.00729979 0)
(-0.0280359 -0.00773201 0)
(-0.0254716 -0.0080517 0)
(-0.0228189 -0.00824632 0)
(-0.0201181 -0.00830411 0)
(-0.0174125 -0.00821455 0)
(-0.0147481 -0.00796915 0)
(-0.0121726 -0.00756232 0)
(-0.00973409 -0.00699261 0)
(-0.00748015 -0.00626425 0)
(-0.00545613 -0.00538935 0)
(-0.00370355 -0.00439087 0)
(-0.00225729 -0.00330659 0)
(-0.00114235 -0.00219391 0)
(-0.00038793 -0.00113581 0)
(-5.28536e-05 -0.000256664 0)
(-7.07717e-05 0.000498932 0)
(-0.000495837 0.00181737 0)
(-0.00142767 0.00327611 0)
(-0.00277429 0.00475074 0)
(-0.00448812 0.00615559 0)
(-0.00653308 0.00743039 0)
(-0.00886547 0.00853532 0)
(-0.011437 0.00944666 0)
(-0.0141971 0.0101528 0)
(-0.0170945 0.0106509 0)
(-0.0200778 0.0109448 0)
(-0.0230972 0.0110428 0)
(-0.0261048 0.0109562 0)
(-0.0290555 0.0106986 0)
(-0.0319075 0.0102844 0)
(-0.0346226 0.00972878 0)
(-0.0371661 0.00904673 0)
(-0.039507 0.0082531 0)
(-0.0416182 0.00736224 0)
(-0.0434759 0.00638789 0)
(-0.0450599 0.0053432 0)
(-0.0463535 0.00424078 0)
(-0.047343 0.00309275 0)
(-0.0480179 0.00191089 0)
(-0.0483709 0.000706822 0)
(-0.0483977 -0.00050786 0)
(-0.048097 -0.00172139 0)
(-0.0474708 -0.00292165 0)
(-0.0465242 -0.00409606 0)
(-0.0452658 -0.00523141 0)
(-0.0437078 -0.00631377 0)
(-0.0418659 -0.00732849 0)
(-0.0397599 -0.00826015 0)
(-0.0374136 -0.00909269 0)
(-0.0348548 -0.00980952 0)
(-0.0321159 -0.0103938 0)
(-0.0292331 -0.0108287 0)
(-0.0262468 -0.0110979 0)
(-0.0232014 -0.0111863 0)
(-0.0201443 -0.0110804 0)
(-0.0171259 -0.0107696 0)
(-0.0141984 -0.0102471 0)
(-0.0114148 -0.00951131 0)
(-0.00882792 -0.00856782 0)
(-0.00648854 -0.00743163 0)
(-0.00444466 -0.0061301 0)
(-0.00273862 -0.00470672 0)
(-0.00140422 -0.00322518 0)
(-0.000485413 -0.00177395 0)
(-6.86361e-05 -0.00047913 0)
(-8.48477e-05 0.000775387 0)
(-0.000586305 0.00259351 0)
(-0.00167494 0.00450787 0)
(-0.00323308 0.006396 0)
(-0.00519847 0.00817044 0)
(-0.0075256 0.00976788 0)
(-0.0101627 0.0111455 0)
(-0.0130544 0.0122772 0)
(-0.0161445 0.0131501 0)
(-0.0193764 0.0137614 0)
(-0.0226944 0.0141156 0)
(-0.0260444 0.014223 0)
(-0.0293748 0.0140975 0)
(-0.0326369 0.0137558 0)
(-0.0357859 0.0132159 0)
(-0.0387804 0.0124966 0)
(-0.0415833 0.0116167 0)
(-0.0441612 0.010595 0)
(-0.0464849 0.00944948 0)
(-0.0485289 0.00819767 0)
(-0.0502714 0.00685624 0)
(-0.0516943 0.00544119 0)
(-0.052783 0.00396799 0)
(-0.0535261 0.00245166 0)
(-0.0539156 0.000907006 0)
(-0.053947 -0.00065116 0)
(-0.0536187 -0.00220783 0)
(-0.0529328 -0.00374756 0)
(-0.0518947 -0.0052543 0)
(-0.0505137 -0.00671125 0)
(-0.0488025 -0.00810068 0)
(-0.0467782 -0.00940398 0)
(-0.044462 -0.0106016 0)
(-0.0418793 -0.0116732 0)
(-0.0390602 -0.0125977 0)
(-0.0360393 -0.0133541 0)
(-0.0328557 -0.0139211 0)
(-0.0295531 -0.0142784 0)
(-0.0261791 -0.014407 0)
(-0.0227852 -0.0142904 0)
(-0.0194259 -0.0139154 0)
(-0.0161578 -0.0132737 0)
(-0.0130389 -0.0123633 0)
(-0.0101274 -0.0111907 0)
(-0.00748019 -0.00977301 0)
(-0.0051523 -0.00814084 0)
(-0.0031942 -0.00634182 0)
(-0.00164888 -0.00444375 0)
(-0.000574503 -0.00253797 0)
(-8.23721e-05 -0.000749585 0)
(-9.73806e-05 0.00109627 0)
(-0.00066988 0.00348884 0)
(-0.00190727 0.00591917 0)
(-0.00366884 0.0082681 0)
(-0.00587851 0.0104482 0)
(-0.00848135 0.012395 0)
(-0.011417 0.0140642 0)
(-0.0146228 0.0154287 0)
(-0.0180363 0.0164751 0)
(-0.0215954 0.0172012 0)
(-0.0252397 0.0176131 0)
(-0.0289108 0.0177234 0)
(-0.0325536 0.017549 0)
(-0.0361161 0.01711 0)
(-0.0395504 0.0164282 0)
(-0.0428126 0.0155264 0)
(-0.0458633 0.0144278 0)
(-0.0486671 0.0131549 0)
(-0.0511929 0.0117301 0)
(-0.0534139 0.0101745 0)
(-0.055307 0.00850876 0)
(-0.056853 0.00675246 0)
(-0.0580363 0.00492459 0)
(-0.058845 0.00304362 0)
(-0.0592705 0.00112776 0)
(-0.0593078 -0.000804791 0)
(-0.0589553 -0.00273558 0)
(-0.058215 -0.00464564 0)
(-0.0570925 -0.00651523 0)
(-0.0555972 -0.0083237 0)
(-0.0537428 -0.0100493 0)
(-0.0515469 -0.0116692 0)
(-0.049032 -0.0131593 0)
(-0.0462248 -0.0144947 0)
(-0.0431572 -0.0156498 0)
(-0.039866 -0.0165985 0)
(-0.0363927 -0.0173152 0)
(-0.0327838 -0.0177748 0)
(-0.0290903 -0.0179545 0)
(-0.0253674 -0.0178341 0)
(-0.0216736 -0.0173974 0)
(-0.0180705 -0.0166343 0)
(-0.0146211 -0.0155419 0)
(-0.0113892 -0.0141267 0)
(-0.00843867 -0.0124072 0)
(-0.0058319 -0.0104162 0)
(-0.00362795 -0.00820407 0)
(-0.00187909 -0.00584116 0)
(-0.000656802 -0.00342001 0)
(-9.45548e-05 -0.00106369 0)
(-0.000108833 0.00145826 0)
(-0.000748438 0.00449691 0)
(-0.00212856 0.0075028 0)
(-0.00408758 0.0103603 0)
(-0.00653656 0.0129831 0)
(-0.00941121 0.0153069 0)
(-0.0126425 0.0172871 0)
(-0.0161599 0.0188966 0)
(-0.0198942 0.0201229 0)
(-0.0237778 0.020965 0)
(-0.0277451 0.0214313 0)
(-0.0317335 0.0215372 0)
(-0.0356839 0.021303 0)
(-0.0395413 0.0207528 0)
(-0.0432549 0.0199126 0)
(-0.0467785 0.0188096 0)
(-0.0500704 0.0174713 0)
(-0.0530937 0.0159248 0)
(-0.0558158 0.0141965 0)
(-0.0582084 0.0123119 0)
(-0.0602476 0.0102954 0)
(-0.0619132 0.0081706 0)
(-0.063189 0.00596008 0)
(-0.0640623 0.00368593 0)
(-0.0645243 0.00136989 0)
(-0.0645694 -0.000966319 0)
(-0.0641959 -0.00330065 0)
(-0.0634055 -0.00561044 0)
(-0.062204 -0.00787213 0)
(-0.060601 -0.010061 0)
(-0.0586103 -0.012151 0)
(-0.0562503 -0.0141149 0)
(-0.0535442 -0.0159239 0)
(-0.0505199 -0.0175481 0)
(-0.0472109 -0.0189568 0)
(-0.0436555 -0.0201189 0)
(-0.0398977 -0.0210035 0)
(-0.0359868 -0.021581 0)
(-0.0319769 -0.0218237 0)
(-0.0279269 -0.0217073 0)
(-0.0238997 -0.0212126 0)
(-0.0199618 -0.0203265 0)
(-0.0161817 -0.0190447 0)
(-0.0126298 -0.0173732 0)
(-0.00937667 -0.0153308 0)
(-0.00649305 -0.0129517 0)
(-0.00404672 -0.0102878 0)
(-0.00209919 -0.00741088 0)
(-0.000734343 -0.004414 0)
(-0.000105673 -0.00141823 0)
(-0.000119625 0.00185918 0)
(-0.000823958 0.0056134 0)
(-0.0023433 0.009254 0)
(-0.00449671 0.0126684 0)
(-0.00718307 0.0157721 0)
(-0.0103289 0.0185015 0)
(-0.0138562 0.020813 0)
(-0.0176864 0.0226805 0)
(-0.0217433 0.0240931 0)
(-0.025953 0.0250522 0)
(-0.0302445 0.025569 0)
(-0.0345509 0.0256625 0)
(-0.0388091 0.0253571 0)
(-0.0429608 0.0246812 0)
(-0.0469524 0.0236656 0)
(-0.0507354 0.0223421 0)
(-0.0542664 0.0207432 0)
(-0.0575067 0.0189004 0)
(-0.0604226 0.0168449 0)
(-0.0629847 0.0146065 0)
(-0.0651683 0.0122136 0)
(-0.0669524 0.00969392 0)
(-0.0683202 0.00707379 0)
(-0.0692588 0.004379 0)
(-0.0697585 0.0016349 0)
(-0.0698138 -0.00113315 0)
(-0.0694224 -0.00389944 0)
(-0.0685858 -0.00663751 0)
(-0.0673098 -0.00931981 0)
(-0.0656037 -0.0119175 0)
(-0.0634817 -0.0144 0)
(-0.0609625 -0.0167354 0)
(-0.0580696 -0.0188898 0)
(-0.0548321 -0.0208282 0)
(-0.0512844 -0.0225145 0)
(-0.0474667 -0.0239119 0)
(-0.0434251 -0.0249841 0)
(-0.0392113 -0.0256959 0)
(-0.034883 -0.0260147 0)
(-0.0305027 -0.0259114 0)
(-0.0261381 -0.0253628 0)
(-0.0218607 -0.0243526 0)
(-0.0177453 -0.022874 0)
(-0.0138689 -0.0209319 0)
(-0.01031 -0.0185445 0)
(-0.0071477 -0.0157464 0)
(-0.00445889 -0.0125904 0)
(-0.0023142 -0.00914923 0)
(-0.000809294 -0.00551618 0)
(-0.000116175 -0.00181115 0)
(-0.000130132 0.00229788 0)
(-0.00089839 0.00683626 0)
(-0.00255624 0.0111709 0)
(-0.00490427 0.0151917 0)
(-0.0078296 0.0188156 0)
(-0.0112496 0.0219806 0)
(-0.0150772 0.0246447 0)
(-0.0192255 0.0267838 0)
(-0.0236105 0.0283895 0)
(-0.0281519 0.0294664 0)
(-0.0327733 0.0300294 0)
(-0.0374025 0.0301019 0)
(-0.0419726 0.0297131 0)
(-0.0464219 0.0288963 0)
(-0.050694 0.0276875 0)
(-0.0547383 0.0261239 0)
(-0.0585095 0.0242428 0)
(-0.0619677 0.0220811 0)
(-0.0650778 0.0196746 0)
(-0.0678099 0.0170577 0)
(-0.0701383 0.0142632 0)
(-0.0720417 0.0113227 0)
(-0.0735029 0.00826656 0)
(-0.0745083 0.00512431 0)
(-0.0750481 0.00192497 0)
(-0.0751162 -0.00130247 0)
(-0.0747101 -0.00452858 0)
(-0.0738309 -0.00772303 0)
(-0.072484 -0.0108543 0)
(-0.0706786 -0.0138891 0)
(-0.0684287 -0.0167923 0)
(-0.065753 -0.0195271 0)
(-0.0626755 -0.0220544 0)
(-0.0592258 -0.0243335 0)
(-0.0554392 -0.0263223 0)
(-0.0513575 -0.0279784 0)
(-0.0470287 -0.0292591 0)
(-0.0425073 -0.0301233 0)
(-0.0378541 -0.0305325 0)
(-0.0331359 -0.0304524 0)
(-0.028425 -0.0298548 0)
(-0.0237988 -0.0287195 0)
(-0.0193386 -0.0270366 0)
(-0.0151289 -0.0248086 0)
(-0.0112564 -0.0220527 0)
(-0.00780916 -0.0188032 0)
(-0.00487358 -0.0151131 0)
(-0.00252944 -0.0110559 0)
(-0.000883818 -0.00672539 0)
(-0.000126471 -0.0022416 0)
(-0.000140692 0.00277426 0)
(-0.000973612 0.00816579 0)
(-0.00277209 0.013255 0)
(-0.00531847 0.0179328 0)
(-0.00848818 0.0221178 0)
(-0.0121893 0.0257498 0)
(-0.0163255 0.0287889 0)
(-0.0208009 0.0312139 0)
(-0.0255237 0.0330198 0)
(-0.0304066 0.0342151 0)
(-0.0353669 0.0348197 0)
(-0.0403275 0.034862 0)
(-0.0452172 0.0343766 0)
(-0.0499708 0.0334028 0)
(-0.0545292 0.0319822 0)
(-0.0588395 0.0301578 0)
(-0.0628548 0.0279727 0)
(-0.066534 0.0254689 0)
(-0.0698411 0.0226873 0)
(-0.0727455 0.0196671 0)
(-0.0752211 0.0164456 0)
(-0.0772461 0.0130586 0)
(-0.078803 0.00954046 0)
(-0.079878 0.00592431 0)
(-0.0804608 0.00224289 0)
(-0.080545 -0.00147116 0)
(-0.0801275 -0.0051847 0)
(-0.0792092 -0.00886358 0)
(-0.0777947 -0.0124721 0)
(-0.0758931 -0.0159727 0)
(-0.0735177 -0.0193256 0)
(-0.0706871 -0.0224886 0)
(-0.0674254 -0.0254172 0)
(-0.0637624 -0.0280647 0)
(-0.0597343 -0.0303829 0)
(-0.0553842 -0.0323225 0)
(-0.0507618 -0.0338345 0)
(-0.0459244 -0.0348708 0)
(-0.0409361 -0.0353864 0)
(-0.0358681 -0.0353408 0)
(-0.0307979 -0.0347001 0)
(-0.025809 -0.0334392 0)
(-0.02099 -0.0315441 0)
(-0.0164333 -0.0290142 0)
(-0.0122345 -0.025865 0)
(-0.00849143 -0.0221296 0)
(-0.00530029 -0.0178612 0)
(-0.00275031 -0.0131341 0)
(-0.000960036 -0.00804312 0)
(-0.000136933 -0.00270985 0)
(-0.000151611 0.00328917 0)
(-0.00105142 0.00960464 0)
(-0.0029955 0.0155106 0)
(-0.00574752 0.0208981 0)
(-0.00917098 0.025687 0)
(-0.0131644 0.0298188 0)
(-0.0176215 0.0332564 0)
(-0.0224372 0.0359822 0)
(-0.0275112 0.0379954 0)
(-0.0327487 0.0393097 0)
(-0.0380607 0.0399506 0)
(-0.0433645 0.0399525 0)
(-0.0485845 0.0393565 0)
(-0.0536518 0.0382084 0)
(-0.0585046 0.0365564 0)
(-0.0630879 0.0344497 0)
(-0.0673533 0.0319374 0)
(-0.0712585 0.0290675 0)
(-0.0747669 0.0258863 0)
(-0.0778473 0.0224377 0)
(-0.0804735 0.0187639 0)
(-0.0826235 0.0149048 0)
(-0.0842795 0.0108985 0)
(-0.0854275 0.00678219 0)
(-0.0860569 0.00259204 0)
(-0.0861608 -0.00163572 0)
(-0.0857357 -0.00586431 0)
(-0.0847819 -0.0100558 0)
(-0.0833033 -0.0141704 0)
(-0.0813081 -0.0181661 0)
(-0.0788093 -0.0219983 0)
(-0.0758248 -0.0256194 0)
(-0.0723783 -0.0289792 0)
(-0.0684998 -0.0320246 0)
(-0.064226 -0.0347007 0)
(-0.0596009 -0.0369511 0)
(-0.0546763 -0.038719 0)
(-0.0495117 -0.0399492 0)
(-0.044175 -0.0405891 0)
(-0.0387417 -0.0405909 0)
(-0.033295 -0.0399142 0)
(-0.0279252 -0.0385277 0)
(-0.0227285 -0.0364126 0)
(-0.0178062 -0.0335643 0)
(-0.0132636 -0.0299954 0)
(-0.00920886 -0.0257379 0)
(-0.00574866 -0.0208447 0)
(-0.00298221 -0.0153909 0)
(-0.00104001 -0.00947355 0)
(-0.000147911 -0.00321727 0)
(-0.000163175 0.00384438 0)
(-0.00113353 0.0111577 0)
(-0.003231 0.0179455 0)
(-0.00619953 0.0240979 0)
(-0.00989004 0.0295353 0)
(-0.0141909 0.0342013 0)
(-0.0189854 0.0380619 0)
(-0.0241585 0.0411038 0)
(-0.0296009 0.0433315 0)
(-0.0352098 0.0447648 0)
(-0.0408891 0.0454357 0)
(-0.0465507 0.045386 0)
(-0.0521141 0.0446641 0)
(-0.0575067 0.0433231 0)
(-0.0626639 0.0414185 0)
(-0.0675287 0.0390067 0)
(-0.0720513 0.0361433 0)
(-0.0761886 0.0328825 0)
(-0.0799035 0.0292763 0)
(-0.0831646 0.0253738 0)
(-0.0859456 0.0212219 0)
(-0.0882245 0.0168648 0)
(-0.0899835 0.0123445 0)
(-0.0912084 0.00770175 0)
(-0.0918884 0.0029763 0)
(-0.0920163 -0.00179222 0)
(-0.0915878 -0.00656355 0)
(-0.0906025 -0.011296 0)
(-0.0890634 -0.0159459 0)
(-0.0869778 -0.0204667 0)
(-0.0843577 -0.024809 0)
(-0.0812201 -0.0289196 0)
(-0.0775882 -0.0327422 0)
(-0.0734915 -0.0362171 0)
(-0.0689668 -0.0392819 0)
(-0.0640592 -0.0418724 0)
(-0.0588218 -0.0439239 0)
(-0.0533168 -0.0453723 0)
(-0.0476156 -0.0461567 0)
(-0.0417984 -0.046221 0)
(-0.0359546 -0.0455168 0)
(-0.0301815 -0.044006 0)
(-0.0245838 -0.0416633 0)
(-0.0192725 -0.0384794 0)
(-0.0143634 -0.0344634 0)
(-0.00997598 -0.0296452 0)
(-0.00622836 -0.0240776 0)
(-0.00323052 -0.0178371 0)
(-0.00112578 -0.0110235 0)
(-0.000159733 -0.00376629 0)
(-0.000175653 0.00444251 0)
(-0.00122161 0.0128321 0)
(-0.00348299 0.0205706 0)
(-0.00668246 0.027546 0)
(-0.0106573 0.033679 0)
(-0.0152848 0.0389152 0)
(-0.0204373 0.0432243 0)
(-0.0259887 0.0465979 0)
(-0.0318202 0.0490468 0)
(-0.0378201 0.0505981 0)
(-0.0438853 0.0512917 0)
(-0.0499214 0.0511776 0)
(-0.055843 0.0503126 0)
(-0.0615739 0.0487584 0)
(-0.0670466 0.0465786 0)
(-0.0722022 0.0438373 0)
(-0.0769899 0.0405974 0)
(-0.0813657 0.0369198 0)
(-0.0852926 0.0328624 0)
(-0.0887391 0.02848 0)
(-0.0916792 0.0238239 0)
(-0.0940911 0.0189428 0)
(-0.0959571 0.0138825 0)
(-0.0972632 0.00868721 0)
(-0.0979983 0.00340002 0)
(-0.0981546 -0.00193626 0)
(-0.0977275 -0.00727803 0)
(-0.0967154 -0.0125801 0)
(-0.0951202 -0.017795 0)
(-0.0929481 -0.0228718 0)
(-0.0902095 -0.027756 0)
(-0.0869204 -0.0323889 0)
(-0.0831027 -0.0367079 0)
(-0.0787853 -0.0406461 0)
(-0.0740049 -0.0441331 0)
(-0.0688066 -0.0470963 0)
(-0.0632452 -0.0494616 0)
(-0.0573852 -0.0511556 0)
(-0.0513015 -0.0521077 0)
(-0.0450794 -0.0522522 0)
(-0.0388144 -0.0515314 0)
(-0.0326118 -0.0498988 0)
(-0.0265855 -0.0473218 0)
(-0.020857 -0.043785 0)
(-0.0155537 -0.0392931 0)
(-0.0108074 -0.0338737 0)
(-0.00674914 -0.0275791 0)
(-0.00350061 -0.0204875 0)
(-0.00121934 -0.0127025 0)
(-0.000172722 -0.00436037 0)
(-0.000189305 0.00508706 0)
(-0.00131728 0.0146372 0)
(-0.00375581 0.0234 0)
(-0.0072041 0.0312602 0)
(-0.0114844 0.0381384 0)
(-0.016462 0.0439825 0)
(-0.0219967 0.0487661 0)
(-0.027951 0.0524869 0)
(-0.0341953 0.0551631 0)
(-0.0406087 0.0568302 0)
(-0.0470804 0.0575373 0)
(-0.0535093 0.0573439 0)
(-0.0598052 0.0563167 0)
(-0.0658879 0.0545268 0)
(-0.0716875 0.052047 0)
(-0.0771433 0.0489501 0)
(-0.0822034 0.0453069 0)
(-0.0868239 0.0411854 0)
(-0.0909676 0.0366498 0)
(-0.0946038 0.0317606 0)
(-0.0977068 0.026574 0)
(-0.100255 0.0211428 0)
(-0.102232 0.0155167 0)
(-0.103624 0.00974299 0)
(-0.104418 0.00386787 0)
(-0.104608 -0.00206289 0)
(-0.104188 -0.00800273 0)
(-0.103155 -0.0139032 0)
(-0.101509 -0.0197131 0)
(-0.0992552 -0.0253774 0)
(-0.0964024 -0.0308366 0)
(-0.0929646 -0.0360264 0)
(-0.0889623 -0.0408773 0)
(-0.0844228 -0.045315 0)
(-0.0793823 -0.0492607 0)
(-0.073886 -0.0526322 0)
(-0.0679894 -0.0553454 0)
(-0.0617593 -0.0573162 0)
(-0.0552741 -0.0584627 0)
(-0.048624 -0.0587083 0)
(-0.0419113 -0.0579847 0)
(-0.0352497 -0.0562352 0)
(-0.0287631 -0.0534184 0)
(-0.0225844 -0.0495116 0)
(-0.0168541 -0.0445142 0)
(-0.0117179 -0.0384506 0)
(-0.0073208 -0.0313726 0)
(-0.00379788 -0.0233605 0)
(-0.00132272 -0.0145228 0)
(-0.000187197 -0.00500403 0)
(-0.000204388 0.00578235 0)
(-0.00142215 0.0165843 0)
(-0.00405375 0.0264506 0)
(-0.00777219 0.0352618 0)
(-0.0123829 0.0429378 0)
(-0.0177376 0.0494288 0)
(-0.0236827 0.0547136 0)
(-0.0300676 0.0587966 0)
(-0.0367512 0.0617048 0)
(-0.0436028 0.0634835 0)
(-0.0505029 0.0641925 0)
(-0.057344 0.0639026 0)
(-0.0640304 0.0626914 0)
(-0.0704784 0.0606408 0)
(-0.0766155 0.0578341 0)
(-0.0823798 0.0543533 0)
(-0.0877187 0.0502781 0)
(-0.0925885 0.0456842 0)
(-0.0969528 0.0406425 0)
(-0.100782 0.0352192 0)
(-0.10405 0.0294756 0)
(-0.106738 0.0234684 0)
(-0.108829 0.0172509 0)
(-0.11031 0.0108734 0)
(-0.111169 0.00438479 0)
(-0.111397 -0.00216668 0)
(-0.11099 -0.00873177 0)
(-0.109942 -0.0152592 0)
(-0.108252 -0.0216943 0)
(-0.105924 -0.0279781 0)
(-0.102963 -0.0340464 0)
(-0.0993815 -0.039829 0)
(-0.0951977 -0.0452497 0)
(-0.0904371 -0.050226 0)
(-0.0851343 -0.05467 0)
(-0.079334 -0.0584893 0)
(-0.0730923 -0.0615884 0)
(-0.0664775 -0.0638712 0)
(-0.0595714 -0.0652433 0)
(-0.0524693 -0.0656152 0)
(-0.0452805 -0.0649061 0)
(-0.0381276 -0.0630475 0)
(-0.0311453 -0.0599874 0)
(-0.0244795 -0.0556943 0)
(-0.0182847 -0.0501611 0)
(-0.0127223 -0.0434081 0)
(-0.00795322 -0.0354863 0)
(-0.00412781 -0.0264786 0)
(-0.00143794 -0.0164992 0)
(-0.000203485 -0.0057028 0)
(-0.000221162 0.00653351 0)
(-0.00153783 0.0186871 0)
(-0.00438107 0.0297427 0)
(-0.00839435 0.0395755 0)
(-0.013364 0.0481049 0)
(-0.0191267 0.0552838 0)
(-0.0255135 0.0610964 0)
(-0.0323596 0.0655556 0)
(-0.0395113 0.0686986 0)
(-0.046827 0.0705822 0)
(-0.0541784 0.0712787 0)
(-0.0614508 0.0708715 0)
(-0.0685434 0.0694513 0)
(-0.0753689 0.0671121 0)
(-0.0818525 0.0639485 0)
(-0.0879315 0.0600534 0)
(-0.0935533 0.0555158 0)
(-0.0986749 0.0504196 0)
(-0.103261 0.0448429 0)
(-0.107283 0.0388579 0)
(-0.110718 0.0325307 0)
(-0.113546 0.025922 0)
(-0.115753 0.0190883 0)
(-0.117326 0.0120825 0)
(-0.118253 0.00495573 0)
(-0.118526 -0.00224166 0)
(-0.118138 -0.00945834 0)
(-0.117084 -0.0166406 0)
(-0.115359 -0.0237309 0)
(-0.112965 -0.0306666 0)
(-0.109905 -0.0373787 0)
(-0.106187 -0.0437916 0)
(-0.101829 -0.0498217 0)
(-0.0968508 -0.0553784 0)
(-0.0912866 -0.0603638 0)
(-0.0851793 -0.0646744 0)
(-0.0785848 -0.0682021 0)
(-0.0715725 -0.0708373 0)
(-0.0642272 -0.0724711 0)
(-0.0566493 -0.0729995 0)
(-0.048955 -0.0723269 0)
(-0.0412765 -0.0703709 0)
(-0.0337604 -0.0670669 0)
(-0.0265664 -0.0623727 0)
(-0.0198652 -0.056273 0)
(-0.0138355 -0.0487833 0)
(-0.00865643 -0.0399532 0)
(-0.00449596 -0.0298683 0)
(-0.00156711 -0.0186494 0)
(-0.000221923 -0.00646329 0)
(-0.00023989 0.00734651 0)
(-0.00166592 0.0209612 0)
(-0.00474203 0.0332993 0)
(-0.00907817 0.0442298 0)
(-0.014439 0.0536713 0)
(-0.0206438 0.0615799 0)
(-0.0275066 0.0679469 0)
(-0.0348468 0.0727947 0)
(-0.0424968 0.0761725 0)
(-0.0503032 0.0781509 0)
(-0.0581283 0.0788166 0)
(-0.0658502 0.0782678 0)
(-0.0733628 0.0766096 0)
(-0.0805754 0.0739501 0)
(-0.0874116 0.0703968 0)
(-0.0938083 0.0660542 0)
(-0.0997135 0.0610216 0)
(-0.105086 0.0553919 0)
(-0.109891 0.0492507 0)
(-0.114104 0.0426761 0)
(-0.117703 0.035739 0)
(-0.120671 0.0285041 0)
(-0.122994 0.0210305 0)
(-0.12466 0.0133734 0)
(-0.125659 0.0055855 0)
(-0.125983 -0.00228144 0)
(-0.125622 -0.0101746 0)
(-0.124569 -0.0180384 0)
(-0.122821 -0.0258129 0)
(-0.120372 -0.0334324 0)
(-0.117225 -0.0408236 0)
(-0.113384 -0.047905 0)
(-0.10886 -0.0545863 0)
(-0.103674 -0.0607679 0)
(-0.0978535 -0.0663414 0)
(-0.0914405 -0.0711912 0)
(-0.0844893 -0.0751954 0)
(-0.07707 -0.0782289 0)
(-0.0692697 -0.0801668 0)
(-0.0611934 -0.0808878 0)
(-0.0529646 -0.0802793 0)
(-0.0447253 -0.0782426 0)
(-0.036635 -0.0746979 0)
(-0.0288688 -0.0695901 0)
(-0.021615 -0.0628938 0)
(-0.0150723 -0.0546181 0)
(-0.00944056 -0.0448108 0)
(-0.00490804 -0.0335598 0)
(-0.00171239 -0.0209938 0)
(-0.000242863 -0.00729321 0)
(-0.000260849 0.00822818 0)
(-0.0018081 0.0234244 0)
(-0.00514095 0.0371465 0)
(-0.00983123 0.0492564 0)
(-0.0156186 0.0596718 0)
(-0.0223029 0.0683532 0)
(-0.0296785 0.0752998 0)
(-0.0375473 0.0805461 0)
(-0.0457263 0.0841553 0)
(-0.0540497 0.086214 0)
(-0.0623696 0.0868259 0)
(-0.0705565 0.0861061 0)
(-0.0784995 0.0841766 0)
(-0.086105 0.081161 0)
(-0.0932954 0.0771815 0)
(-0.100008 0.0723553 0)
(-0.106192 0.0667932 0)
(-0.111809 0.0605975 0)
(-0.116828 0.0538615 0)
(-0.121224 0.0466696 0)
(-0.124981 0.0390974 0)
(-0.128084 0.0312129 0)
(-0.13052 0.0230776 0)
(-0.13228 0.0147483 0)
(-0.133354 0.00627844 0)
(-0.133732 -0.00227932 0)
(-0.133407 -0.0108715 0)
(-0.132368 -0.0194415 0)
(-0.130608 -0.0279279 0)
(-0.128121 -0.0362621 0)
(-0.124902 -0.0443671 0)
(-0.120954 -0.0521561 0)
(-0.116281 -0.0595316 0)
(-0.1109 -0.0663851 0)
(-0.104835 -0.0725971 0)
(-0.0981232 -0.0780387 0)
(-0.0908171 -0.0825727 0)
(-0.0829863 -0.086057 0)
(-0.0747193 -0.088348 0)
(-0.0661252 -0.089305 0)
(-0.0573346 -0.0887954 0)
(-0.0484999 -0.086701 0)
(-0.0397941 -0.0829239 0)
(-0.0314091 -0.0773934 0)
(-0.0235533 -0.0700714 0)
(-0.0164477 -0.0609592 0)
(-0.0103159 -0.0501011 0)
(-0.00536988 -0.0375877 0)
(-0.00187601 -0.0235558 0)
(-0.000266678 -0.0082014 0)
(-0.000284327 0.00918621 0)
(-0.00196606 0.0260967 0)
(-0.00558224 0.0413134 0)
(-0.0106611 0.0546901 0)
(-0.0169137 0.0661444 0)
(-0.0241173 0.0756418 0)
(-0.0320444 0.0831918 0)
(-0.040477 0.0888428 0)
(-0.0492155 0.0926752 0)
(-0.0580802 0.0947944 0)
(-0.0669128 0.0953236 0)
(-0.0755765 0.0943979 0)
(-0.0839555 0.0921582 0)
(-0.0919538 0.0887461 0)
(-0.0994939 0.0842998 0)
(-0.106514 0.078951 0)
(-0.112967 0.0728227 0)
(-0.118815 0.0660272 0)
(-0.124034 0.058666 0)
(-0.128602 0.0508297 0)
(-0.132506 0.0425984 0)
(-0.135734 0.034043 0)
(-0.138278 0.0252268 0)
(-0.140129 0.0162073 0)
(-0.141278 0.00703806 0)
(-0.141717 -0.00222846 0)
(-0.141435 -0.011539 0)
(-0.140422 -0.020837 0)
(-0.138667 -0.0300601 0)
(-0.13616 -0.0391379 0)
(-0.132891 -0.0479903 0)
(-0.128858 -0.0565257 0)
(-0.124059 -0.0646396 0)
(-0.118504 -0.0722141 0)
(-0.112213 -0.0791184 0)
(-0.105217 -0.085209 0)
(-0.0975659 -0.0903323 0)
(-0.0893261 -0.0943269 0)
(-0.0805869 -0.0970282 0)
(-0.0714607 -0.0982728 0)
(-0.0620849 -0.0979051 0)
(-0.0526221 -0.0957838 0)
(-0.0432599 -0.0917893 0)
(-0.0342086 -0.0858317 0)
(-0.0256986 -0.0778575 0)
(-0.0179763 -0.0678572 0)
(-0.0112928 -0.0558706 0)
(-0.00588748 -0.0419902 0)
(-0.00206031 -0.0263614 0)
(-0.000293765 -0.00919789 0)
(-0.000310635 0.0102292 0)
(-0.00214161 0.0290002 0)
(-0.00607038 0.0458318 0)
(-0.0115754 0.060569 0)
(-0.0183348 0.0731296 0)
(-0.0260997 0.083486 0)
(-0.0346179 0.0916601 0)
(-0.0436493 0.0977175 0)
(-0.0529757 0.101759 0)
(-0.0624029 0.103912 0)
(-0.0717616 0.104322 0)
(-0.0809077 0.103149 0)
(-0.0897212 0.100554 0)
(-0.0981047 0.0966994 0)
(-0.105982 0.0917416 0)
(-0.113293 0.085828 0)
(-0.119994 0.0790947 0)
(-0.126055 0.0716648 0)
(-0.131452 0.0636483 0)
(-0.136173 0.0551417 0)
(-0.140206 0.0462295 0)
(-0.143546 0.0369848 0)
(-0.146187 0.027472 0)