/*--------------------------------*- C++ -*----------------------------------*\
  =========                 |
  \\      /  F ield         | OpenFOAM: The Open Source CFD Toolbox
   \\    /   O peration     | Website:  https://openfoam.org
    \\  /    A nd           | Version:  7
     \\/     M anipulation  |
\*---------------------------------------------------------------------------*/
FoamFile
{
    version     2.0;
    format      ascii;
    class       surfaceScalarField;
    location    "0.0154";
    object      phi;
}
// * * * * * * * * * * * * * * * * * * * * * * * * * * * * * * * * * * * * * //

dimensions      [0 3 -1 0 0 0 0];

internalField   nonuniform List<scalar> 
4900
(
-5.55776e-06
5.55777e-06
-1.01634e-05
4.60561e-06
-1.29473e-05
2.78392e-06
-1.46601e-05
1.71278e-06
-1.5752e-05
1.09194e-06
-1.64777e-05
7.25713e-07
-1.69831e-05
5.05403e-07
-1.73506e-05
3.6748e-07
-1.76272e-05
2.76588e-07
-1.78408e-05
2.13653e-07
-1.80091e-05
1.68218e-07
-1.81434e-05
1.34291e-07
-1.82516e-05
1.08265e-07
-1.83395e-05
8.78609e-08
-1.8411e-05
7.15666e-08
-1.84694e-05
5.83419e-08
-1.85168e-05
4.74448e-08
-1.85552e-05
3.83301e-08
-1.85858e-05
3.05868e-08
-1.86097e-05
2.38973e-08
-1.86277e-05
1.80105e-08
-1.86404e-05
1.27226e-08
-1.86482e-05
7.86412e-09
-1.86515e-05
3.28927e-09
-1.86504e-05
-1.13267e-09
-1.86449e-05
-5.52225e-09
-1.86349e-05
-9.99909e-09
-1.86202e-05
-1.46851e-08
-1.86005e-05
-1.97117e-08
-1.85753e-05
-2.52268e-08
-1.85439e-05
-3.14023e-08
-1.85054e-05
-3.84451e-08
-1.84588e-05
-4.66098e-08
-1.84026e-05
-5.62181e-08
-1.83349e-05
-6.76861e-08
-1.82533e-05
-8.15651e-08
-1.81547e-05
-9.86056e-08
-1.80349e-05
-1.19861e-07
-1.7888e-05
-1.46865e-07
-1.77061e-05
-1.81941e-07
-1.74773e-05
-2.28766e-07
-1.71839e-05
-2.9344e-07
-1.67973e-05
-3.86532e-07
-1.62703e-05
-5.2703e-07
-1.5521e-05
-7.49305e-07
-1.44082e-05
-1.11283e-06
-1.26925e-05
-1.71564e-06
-9.9533e-06
-2.73922e-06
-5.45515e-06
-4.49815e-06
-5.45515e-06
-1.15323e-08
5.5693e-06
-2.12282e-06
6.7169e-06
-4.83387e-06
5.49497e-06
-7.22646e-06
4.10537e-06
-9.13246e-06
2.99794e-06
-1.06058e-05
2.19908e-06
-1.17411e-05
1.64063e-06
-1.26223e-05
1.24876e-06
-1.33142e-05
9.68416e-07
-1.38635e-05
7.63025e-07
-1.43043e-05
6.0894e-07
-1.46608e-05
4.90804e-07
-1.4951e-05
3.98469e-07
-1.51882e-05
3.25063e-07
-1.53824e-05
2.65811e-07
-1.55414e-05
2.17301e-07
-1.5671e-05
1.77038e-07
-1.57758e-05
1.43151e-07
-1.58594e-05
1.14205e-07
-1.59246e-05
8.90781e-08
-1.59735e-05
6.68711e-08
-1.60076e-05
4.68489e-08
-1.60281e-05
2.83935e-08
-1.60358e-05
1.09695e-08
-1.6031e-05
-5.90295e-09
-1.60139e-05
-2.26737e-08
-1.59841e-05
-3.9782e-08
-1.59411e-05
-5.76778e-08
-1.5884e-05
-7.68431e-08
-1.58114e-05
-9.78145e-08
-1.57216e-05
-1.21211e-07
-1.56122e-05
-1.47767e-07
-1.54805e-05
-1.78377e-07
-1.53225e-05
-2.14154e-07
-1.51337e-05
-2.56516e-07
-1.4908e-05
-3.07303e-07
-1.46376e-05
-3.68962e-07
-1.43127e-05
-4.44825e-07
-1.392e-05
-5.39542e-07
-1.34421e-05
-6.59771e-07
-1.28556e-05
-8.1529e-07
-1.21283e-05
-1.02077e-06
-1.12163e-05
-1.29854e-06
-1.00607e-05
-1.68256e-06
-8.5871e-06
-2.22295e-06
-6.71512e-06
-2.98481e-06
-4.40582e-06
-4.02494e-06
-1.82904e-06
-5.316e-06
1.19647e-07
-6.44684e-06
-5.3355e-06
1.03762e-06
4.53169e-06
5.69634e-07
7.18488e-06
-9.38753e-07
7.00335e-06
-2.79083e-06
5.95744e-06
-4.5943e-06
4.80141e-06
-6.19042e-06
3.7952e-06
-7.54156e-06
2.99177e-06
-8.66257e-06
2.36977e-06
-9.58551e-06
1.89135e-06
-1.03442e-05
1.52168e-06
-1.09685e-05
1.23324e-06
-1.14832e-05
1.00554e-06
-1.19083e-05
8.23595e-07
-1.22597e-05
6.76464e-07
-1.255e-05
5.56089e-07
-1.27892e-05
4.5646e-07
-1.29851e-05
3.73021e-07
-1.31442e-05
3.02261e-07
-1.32715e-05
2.4143e-07
-1.33707e-05
1.88333e-07
-1.3445e-05
1.4119e-07
-1.34967e-05
9.85203e-08
-1.35274e-05
5.90706e-08
-1.35382e-05
2.17445e-08
-1.35296e-05
-1.44462e-08
-1.35019e-05
-5.04285e-08
-1.34545e-05
-8.71081e-08
-1.33868e-05
-1.25408e-07
-1.32974e-05
-1.66308e-07
-1.31843e-05
-2.10891e-07
-1.30451e-05
-2.60387e-07
-1.28766e-05
-3.16235e-07
-1.26748e-05
-3.80161e-07
-1.24347e-05
-4.5427e-07
-1.21501e-05
-5.41184e-07
-1.18131e-05
-6.44223e-07
-1.14144e-05
-7.67661e-07
-1.09422e-05
-9.17096e-07
-1.03818e-05
-1.09996e-06
-9.71525e-06
-1.32627e-06
-8.92096e-06
-1.60958e-06
-7.97355e-06
-1.96818e-06
-6.84589e-06
-2.4262e-06
-5.51493e-06
-3.01352e-06
-3.97653e-06
-3.76135e-06
-2.27726e-06
-4.68409e-06
-5.75216e-07
-5.72698e-06
7.60592e-07
-6.65181e-06
1.0841e-06
-6.77035e-06
-4.2514e-06
9.15696e-07
3.61599e-06
1.26561e-06
6.83497e-06
7.25273e-07
7.54369e-06
-3.80816e-07
7.06353e-06
-1.72552e-06
6.14611e-06
-3.09309e-06
5.16277e-06
-4.36865e-06
4.26733e-06
-5.50477e-06
3.50589e-06
-6.49112e-06
2.8777e-06
-7.33516e-06
2.36571e-06
-8.05145e-06
1.94954e-06
-8.65632e-06
1.6104e-06
-9.16532e-06
1.3326e-06
-9.59233e-06
1.10347e-06
-9.94924e-06
9.13006e-07
-1.02461e-05
7.53304e-07
-1.04912e-05
6.18103e-07
-1.06913e-05
5.02405e-07
-1.08521e-05
4.02178e-07
-1.09779e-05
3.1413e-07
-1.10722e-05
2.35532e-07
-1.11378e-05
1.64085e-07
-1.11765e-05
9.78131e-08
-1.11897e-05
3.49715e-08
-1.11782e-05
-2.60222e-08
-1.11419e-05
-8.66551e-08
-1.10807e-05
-1.48379e-07
-1.09934e-05
-2.12664e-07
-1.08787e-05
-2.81058e-07
-1.07343e-05
-3.55248e-07
-1.05576e-05
-4.37122e-07
-1.03449e-05
-5.28853e-07
-1.00921e-05
-6.32984e-07
-9.79384e-06
-7.52552e-07
-9.4438e-06
-8.91229e-07
-9.03451e-06
-1.05351e-06
-8.55719e-06
-1.24497e-06
-8.00174e-06
-1.47254e-06
-7.35682e-06
-1.74489e-06
-6.6103e-06
-2.0728e-06
-5.75048e-06
-2.4694e-06
-4.76866e-06
-2.95e-06
-3.66429e-06
-3.53057e-06
-2.45474e-06
-4.22307e-06
-1.19219e-06
-5.0239e-06
1.11766e-08
-5.88745e-06
9.56834e-07
-6.67264e-06
1.3514e-06
-7.04638e-06
9.15863e-07
-6.33481e-06
-3.33553e-06
6.84955e-07
2.93104e-06
1.29305e-06
6.22688e-06
1.33001e-06
7.50673e-06
8.34355e-07
7.55918e-06
-9.06826e-09
6.98953e-06
-1.02004e-06
6.17373e-06
-2.06951e-06
5.31681e-06
-3.07881e-06
4.51519e-06
-4.00703e-06
3.80593e-06
-4.83739e-06
3.19607e-06
-5.567e-06
2.67914e-06
-6.20029e-06
2.2437e-06
-6.74507e-06
1.87738e-06
-7.21028e-06
1.56868e-06
-7.60477e-06
1.3075e-06
-7.93674e-06
1.08527e-06
-8.21347e-06
8.94829e-07
-8.44123e-06
7.30166e-07
-8.62532e-06
5.86271e-07
-8.77012e-06
4.58929e-07
-8.87915e-06
3.44563e-07
-8.95517e-06
2.40099e-07
-9.00021e-06
1.42852e-07
-9.01566e-06
5.04277e-08
-9.00232e-06
-3.93646e-08
-8.96039e-06
-1.28588e-07
-8.88951e-06
-2.19254e-07
-8.78879e-06
-3.13387e-07
-8.65675e-06
-4.13094e-07
-8.49136e-06
-5.2064e-07
-8.28997e-06
-6.38513e-07
-8.04931e-06
-7.69514e-07
-7.76545e-06
-9.16846e-07
-7.43378e-06
-1.08422e-06
-7.04906e-06
-1.27595e-06
-6.60542e-06
-1.49715e-06
-6.09661e-06
-1.75379e-06
-5.5163e-06
-2.05286e-06
-4.85879e-06
-2.4024e-06
-4.12027e-06
-2.81132e-06
-3.30093e-06
-3.28874e-06
-2.40856e-06
-3.84237e-06
-1.46425e-06
-4.47488e-06
-5.10821e-07
-5.17649e-06
3.76298e-07
-5.91102e-06
1.07945e-06
-6.5906e-06
1.44165e-06
-7.03484e-06
1.30936e-06
-6.91409e-06
6.68501e-07
-5.69395e-06
-2.66703e-06
4.96353e-07
2.43468e-06
1.13511e-06
5.58813e-06
1.46715e-06
7.17468e-06
1.38919e-06
7.63715e-06
9.6595e-07
7.41277e-06
3.1272e-07
6.82696e-06
-4.61415e-07
6.09094e-06
-1.27424e-06
5.32801e-06
-2.07122e-06
4.60291e-06
-2.81995e-06
3.94481e-06
-3.50365e-06
3.36284e-06
-4.11565e-06
2.85569e-06
-4.65539e-06
2.41712e-06
-5.12576e-06
2.03905e-06
-5.53137e-06
1.71311e-06
-5.87747e-06
1.43137e-06
-6.16931e-06
1.18667e-06
-6.41184e-06
9.72694e-07
-6.60946e-06
7.83896e-07
-6.76599e-06
6.15455e-07
-6.88459e-06
4.63163e-07
-6.9678e-06
3.23315e-07
-7.01757e-06
1.92619e-07
-7.03524e-06
6.81002e-08
-7.02162e-06
-5.29879e-08
-6.97697e-06
-1.73241e-07
-6.90104e-06
-2.95184e-07
-6.79308e-06
-4.21342e-07
-6.65186e-06
-5.54313e-07
-6.47566e-06
-6.96842e-07
-6.26229e-06
-8.51886e-07
-6.00912e-06
-1.02269e-06
-5.71312e-06
-1.21285e-06
-5.37095e-06
-1.42638e-06
-4.9791e-06
-1.6678e-06
-4.53414e-06
-1.94211e-06
-4.03313e-06
-2.2548e-06
-3.47424e-06
-2.61175e-06
-2.85778e-06
-3.01885e-06
-2.18778e-06
-3.48132e-06
-1.47426e-06
-4.00226e-06
-7.36543e-07
-4.58009e-06
-7.55457e-09
-5.20387e-06
6.61302e-07
-5.84535e-06
1.19646e-06
-6.44618e-06
1.50467e-06
-6.89882e-06
1.49157e-06
-7.02173e-06
1.1123e-06
-6.53482e-06
4.74841e-07
-5.05649e-06
-2.19219e-06
3.65779e-07
2.06891e-06
9.56222e-07
4.99768e-06
1.41625e-06
6.71465e-06
1.59516e-06
7.45824e-06
1.48201e-06
7.52592e-06
1.13346e-06
7.17552e-06
6.25367e-07
6.59904e-06
2.77194e-08
5.92566e-06
-6.04638e-07
5.23526e-06
-1.23295e-06
4.57312e-06
-1.83207e-06
3.96197e-06
-2.38715e-06
3.41078e-06
-2.89057e-06
2.92054e-06
-3.33948e-06
2.48796e-06
-3.73401e-06
2.10764e-06
-4.07604e-06
1.7734e-06
-4.36835e-06
1.47898e-06
-4.61404e-06
1.21838e-06
-4.81621e-06
9.86066e-07
-4.97774e-06
7.76982e-07
-5.10115e-06
5.86573e-07
-5.18855e-06
4.10719e-07
-5.24161e-06
2.45683e-07
-5.26154e-06
8.80316e-08
-5.2491e-06
-6.54303e-08
-5.2046e-06
-2.17739e-07
-5.12795e-06
-3.71842e-07
-5.01862e-06
-5.30667e-07
-4.87575e-06
-6.97189e-07
-4.69809e-06
-8.74493e-07
-4.48415e-06
-1.06583e-06
-4.23219e-06
-1.27465e-06
-3.94037e-06
-1.50467e-06
-3.60691e-06
-1.75985e-06
-3.23032e-06
-2.04438e-06
-2.80981e-06
-2.36261e-06
-2.34576e-06
-2.71885e-06
-1.84052e-06
-3.117e-06
-1.29945e-06
-3.55992e-06
-7.32437e-07
-4.04833e-06
-1.55739e-07
-4.57896e-06
4.05693e-07
-5.14152e-06
9.15926e-07
-5.7141e-06
1.32666e-06
-6.25609e-06
1.57891e-06
-6.69843e-06
1.61158e-06
-6.93149e-06
1.38311e-06
-6.79326e-06
9.12816e-07
-6.06453e-06
3.43575e-07
-4.48725e-06
-1.84862e-06
2.7931e-07
1.7896e-06
8.01666e-07
4.47533e-06
1.30052e-06
6.2158e-06
1.62418e-06
7.13458e-06
1.72283e-06
7.42727e-06
1.61052e-06
7.28783e-06
1.3313e-06
6.87825e-06
9.36823e-07
6.32014e-06
4.74324e-07
5.69776e-06
-1.80881e-08
5.06553e-06
-5.12184e-07
4.45606e-06
-9.88451e-07
3.88704e-06
-1.43431e-06
3.3664e-06
-1.84233e-06
2.89598e-06
-2.20872e-06
2.47403e-06
-2.53214e-06
2.09682e-06
-2.8128e-06
1.75964e-06
-3.0518e-06
1.45739e-06
-3.25074e-06
1.185e-06
-3.41135e-06
9.37591e-07
-3.53532e-06
7.1055e-07
-3.62419e-06
4.9959e-07
-3.67923e-06
3.00721e-07
-3.70142e-06
1.10218e-07
-3.69142e-06
-7.54275e-08
-3.6496e-06
-2.59566e-07
-3.57599e-06
-4.45447e-07
-3.47038e-06
-6.36274e-07
-3.33231e-06
-8.35258e-07
-3.16114e-06
-1.04567e-06
-2.95612e-06
-1.27085e-06
-2.71652e-06
-1.51425e-06
-2.44178e-06
-1.77941e-06
-2.1317e-06
-2.06993e-06
-1.78679e-06
-2.3893e-06
-1.40862e-06
-2.74078e-06
-1.00044e-06
-3.12704e-06
-5.6783e-07
-3.54961e-06
-1.19695e-07
-4.00805e-06
3.30643e-07
-4.49867e-06
7.64193e-07
-5.01251e-06
1.15516e-06
-5.53249e-06
1.47045e-06
-6.02938e-06
1.67074e-06
-6.45638e-06
1.71497e-06
-6.74265e-06
1.57044e-06
-6.78695e-06
1.2315e-06
-6.45432e-06
7.47888e-07
-5.58092e-06
2.57666e-07
-3.99703e-06
-1.59095e-06
2.21121e-07
1.56847e-06
6.77154e-07
4.0193e-06
1.17067e-06
5.72228e-06
1.5671e-06
6.73815e-06
1.80134e-06
7.19302e-06
1.86083e-06
7.22835e-06
1.76453e-06
6.97455e-06
1.5458e-06
6.53887e-06
1.24104e-06
6.00251e-06
8.83505e-07
5.42307e-06
5.00585e-07
4.83898e-06
1.13348e-07
4.27428e-06
-2.62918e-07
3.74266e-06
-6.17705e-07
3.25076e-06
-9.44216e-07
2.80054e-06
-1.2384e-06
2.39101e-06
-1.49816e-06
2.01939e-06
-1.7227e-06
1.68193e-06
-1.91208e-06
1.37438e-06
-2.06684e-06
1.09235e-06
-2.18778e-06
8.31484e-07
-2.27574e-06
5.87553e-07
-2.33155e-06
3.56525e-07
-2.35588e-06
1.34557e-07
-2.34929e-06
-8.20174e-08
-2.31214e-06
-2.9672e-07
-2.24463e-06
-5.12963e-07
-2.14681e-06
-7.34088e-07
-2.01867e-06
-9.63398e-07
-1.86016e-06
-1.20418e-06
-1.6713e-06
-1.4597e-06
-1.45234e-06
-1.73321e-06
-1.2039e-06
-2.02785e-06
-9.27236e-07
-2.34659e-06
-6.24527e-07
-2.692e-06
-2.99284e-07
-3.06602e-06
4.31652e-08
-3.46949e-06
3.95075e-07
-3.90152e-06
7.45603e-07
-4.35858e-06
1.08011e-06
-4.83318e-06
1.37959e-06
-5.31198e-06
1.62048e-06
-5.77338e-06
1.77544e-06
-6.18435e-06
1.81577e-06
-6.49672e-06
1.71667e-06
-6.64355e-06
1.46647e-06
-6.53675e-06
1.08054e-06
-6.06839e-06
6.18736e-07
-5.11912e-06
2.0041e-07
-3.5787e-06
-1.39054e-06
1.8036e-07
1.38811e-06
5.77906e-07
3.62175e-06
1.04564e-06
5.25455e-06
1.4705e-06
6.31329e-06
1.78525e-06
6.87827e-06
1.96285e-06
7.05074e-06
2.00473e-06
6.93268e-06
1.9289e-06
6.6147e-06
1.76072e-06
6.17069e-06
1.52669e-06
5.6571e-06
1.25099e-06
5.11467e-06
9.5396e-07
4.57131e-06
6.51658e-07
4.04496e-06
3.56216e-07
3.5462e-06
7.63929e-08
3.08037e-06
-1.81763e-07
2.64917e-06
-4.14285e-07
2.25192e-06
-6.18745e-07
1.88639e-06
-7.93811e-07
1.54945e-06
-9.38893e-07
1.23744e-06
-1.05388e-06
9.46475e-07
-1.13896e-06
6.72629e-07
-1.19445e-06
4.1201e-07
-1.22072e-06
1.60828e-07
-1.21815e-06
-8.45844e-08
-1.18709e-06
-3.27775e-07
-1.12788e-06
-5.72182e-07
-1.04082e-06
-8.21147e-07
-9.26288e-07
-1.07793e-06
-7.8479e-07
-1.34568e-06
-6.17045e-07
-1.62745e-06
-4.24148e-07
-1.92611e-06
-2.07738e-07
-2.24426e-06
2.97678e-08
-2.5841e-06
2.849e-07
-2.94714e-06
5.52793e-07
-3.33392e-06
8.26803e-07
-3.7435e-06
1.09808e-06
-4.17279e-06
1.35516e-06
-4.61567e-06
1.58369e-06
-5.0617e-06
1.76633e-06
-5.49463e-06
1.88335e-06
-5.8904e-06
1.91398e-06
-6.21498e-06
1.83936e-06
-6.4221e-06
1.64747e-06
-6.45165e-06
1.34047e-06
-6.22975e-06
9.44259e-07
-5.67218e-06
5.18224e-07
-4.69308e-06
1.60747e-07
-3.22123e-06
-1.22979e-06
1.50425e-07
1.23769e-06
4.97774e-07
3.2744e-06
9.31109e-07
4.82122e-06
1.35771e-06
5.8867e-06
1.71458e-06
6.52139e-06
1.96832e-06
6.79701e-06
2.10922e-06
6.79178e-06
2.14373e-06
6.58018e-06
2.08752e-06
6.22691e-06
1.96009e-06
5.78452e-06
1.78131e-06
5.29346e-06
1.56928e-06
4.78334e-06
1.33949e-06
4.27476e-06
1.10443e-06
3.78126e-06
8.73872e-07
3.31093e-06
6.55114e-07
2.86792e-06
4.5346e-07
2.45357e-06
2.72618e-07
2.06723e-06
1.15072e-07
1.70699e-06
-1.76045e-08
1.37011e-06
-1.24491e-07
1.05336e-06
-2.05124e-07
7.53262e-07
-2.59352e-07
4.66237e-07
-2.8723e-07
1.88706e-07
-2.88959e-07
-8.28555e-08
-2.64846e-07
-3.51888e-07
-2.15301e-07
-6.21726e-07
-1.4086e-07
-8.95588e-07
-4.22304e-08
-1.17655e-06
7.96372e-08
-1.46754e-06
2.23446e-07
-1.77126e-06
3.8742e-07
-2.09008e-06
5.69141e-07
-2.42598e-06
7.65349e-07
-2.78031e-06
9.71712e-07
-3.1535e-06
1.18256e-06
-3.54477e-06
1.39064e-06
-3.95157e-06
1.58683e-06
-4.36899e-06
1.76003e-06
-4.78887e-06
1.89714e-06
-5.19881e-06
1.98342e-06
-5.58091e-06
2.00338e-06
-5.91035e-06
1.94245e-06
-6.15405e-06
1.78981e-06
-6.26946e-06
1.54254e-06
-6.20438e-06
1.21104e-06
-5.89825e-06
8.25091e-07
-5.28623e-06
4.38919e-07
-4.30691e-06
1.32018e-07
-2.91432e-06
-1.09778e-06
1.274e-07
1.11029e-06
4.31649e-07
2.97015e-06
8.27696e-07
4.42517e-06
1.24018e-06
5.47421e-06
1.61296e-06
6.14861e-06
1.91115e-06
6.49882e-06
2.11877e-06
6.58417e-06
2.23421e-06
6.46474e-06
2.2654e-06
6.19572e-06
2.22552e-06
5.8244e-06
2.12986e-06
5.38912e-06
1.99365e-06
4.91954e-06
1.83083e-06
4.43759e-06
1.6534e-06
3.95868e-06
1.47131e-06
3.49302e-06
1.29245e-06
3.04678e-06
1.12295e-06
2.62307e-06
9.67396e-07
2.22279e-06
8.29135e-07
1.84526e-06
7.10534e-07
1.48871e-06
6.13194e-07
1.1507e-06
5.38136e-07
8.28321e-07
4.8594e-07
5.18433e-07
4.56854e-07
2.17793e-07
4.5086e-07
-7.68615e-08
4.67715e-07
-3.68743e-07
5.06962e-07
-6.60974e-07
5.67915e-07
-9.5654e-07
6.49614e-07
-1.25825e-06
7.50766e-07
-1.5687e-06
8.69649e-07
-1.89014e-06
1.004e-06
-2.22443e-06
1.15087e-06
-2.57285e-06
1.30647e-06
-2.93591e-06
1.466e-06
-3.31303e-06
1.62347e-06
-3.70224e-06
1.77155e-06
-4.09965e-06
1.90149e-06
-4.49893e-06
2.00314e-06
-4.89051e-06
2.06518e-06
-5.26085e-06
2.07572e-06
-5.59145e-06
2.02331e-06
-5.85794e-06
1.89861e-06
-6.02935e-06
1.69686e-06
-6.06771e-06
1.42111e-06
-5.92863e-06
1.08601e-06
-5.56315e-06
7.21477e-07
-4.92171e-06
3.74954e-07
-3.96039e-06
1.10271e-07
-2.64964e-06
-9.87506e-07
1.08949e-07
1.00134e-06
3.75788e-07
2.70331e-06
7.34329e-07
4.06663e-06
1.12345e-06
5.08509e-06
1.49443e-06
5.77763e-06
1.8137e-06
6.17954e-06
2.06233e-06
6.33554e-06
2.23354e-06
6.29353e-06
2.3295e-06
6.09976e-06
2.35815e-06
5.79576e-06
2.33052e-06
5.41675e-06
2.25877e-06
4.99129e-06
2.15485e-06
4.54151e-06
2.02969e-06
4.08384e-06
1.89279e-06
3.62992e-06
1.75212e-06
3.18745e-06
1.61414e-06
2.76105e-06
1.48396e-06
2.35297e-06
1.3655e-06
1.96371e-06
1.2617e-06
1.59252e-06
1.17468e-06
1.23772e-06
1.10591e-06
8.97088e-07
1.05634e-06
5.68002e-07
1.02649e-06
2.47649e-07
1.0165e-06
-6.68758e-08
1.02622e-06
-3.78467e-07
1.05519e-06
-6.89942e-07
1.10263e-06
-1.00398e-06
1.16741e-06
-1.32304e-06
1.24802e-06
-1.64931e-06
1.34247e-06
-1.98458e-06
1.44818e-06
-2.33014e-06
1.56192e-06
-2.68659e-06
1.67965e-06
-3.05364e-06
1.79644e-06
-3.42982e-06
1.90633e-06
-3.81214e-06
2.00235e-06
-4.19567e-06
2.07646e-06
-4.57304e-06
2.1198e-06
-4.93386e-06
2.12302e-06
-5.26407e-06
2.07693e-06
-5.54536e-06
1.97357e-06
-5.75458e-06
1.8077e-06
-5.86348e-06
1.57882e-06
-5.83883e-06
1.29355e-06
-5.64337e-06
9.68217e-07
-5.23781e-06
6.3088e-07
-4.58437e-06
3.221e-07
-3.65161e-06
9.314e-08
-2.42068e-06
-8.94366e-07
9.36559e-08
9.07684e-07
3.27577e-07
2.46939e-06
6.49601e-07
3.74461e-06
1.01009e-06
4.7246e-06
1.36746e-06
5.42026e-06
1.69085e-06
5.85615e-06
1.96053e-06
6.06586e-06
2.16675e-06
6.08731e-06
2.30767e-06
5.95883e-06
2.38715e-06
5.71628e-06
2.41257e-06
5.39133e-06
2.39319e-06
5.01068e-06
2.33881e-06
4.59589e-06
2.25895e-06
4.1637e-06
2.16231e-06
3.72656e-06
2.05651e-06
3.29325e-06
1.94798e-06
2.86957e-06
1.84202e-06
2.45893e-06
1.74284e-06
2.06289e-06
1.65376e-06
1.6816e-06
1.57724e-06
1.31424e-06
1.51511e-06
9.59226e-07
1.46857e-06
6.14536e-07
1.43838e-06
2.77838e-07
1.42485e-06
-5.33446e-08
1.42791e-06
-3.81524e-07
1.44712e-06
-7.09152e-07
1.48167e-06
-1.03853e-06
1.53038e-06
-1.37174e-06
1.59159e-06
-1.71052e-06
1.66318e-06
-2.05618e-06
1.74247e-06
-2.40942e-06
1.82611e-06
-2.77023e-06
1.91006e-06
-3.13759e-06
1.9895e-06
-3.50925e-06
2.05879e-06
-3.88143e-06
2.11154e-06
-4.24842e-06
2.14067e-06
-4.60217e-06
2.13869e-06
-4.93188e-06
2.09813e-06
-5.22351e-06
2.0122e-06
-5.45943e-06
1.87577e-06
-5.61815e-06
1.68661e-06
-5.67432e-06
1.44699e-06
-5.59922e-06
1.16543e-06
-5.36181e-06
8.58285e-07
-4.93067e-06
5.50869e-07
-4.27695e-06
2.77404e-07
-3.37814e-06
7.91744e-08
-2.22245e-06
-8.15191e-07
8.06366e-08
8.27048e-07
2.85215e-07
2.26481e-06
5.72232e-07
3.45759e-06
9.01307e-07
4.39553e-06
1.2373e-06
5.08427e-06
1.55265e-06
5.5408e-06
1.82819e-06
5.79032e-06
2.05274e-06
5.86276e-06
2.2219e-06
5.78967e-06
2.33651e-06
5.60167e-06
2.40102e-06
5.32682e-06
2.42209e-06
4.9896e-06
2.40749e-06
4.61049e-06
2.36522e-06
4.20597e-06
2.30295e-06
3.78883e-06
2.22767e-06
3.36853e-06
2.14551e-06
2.95173e-06
2.06169e-06
2.54276e-06
1.9805e-06
2.14407e-06
1.90541e-06
1.7567e-06
1.8391e-06
1.38055e-06
1.78359e-06
1.01473e-06
1.74032e-06
6.57807e-07
1.71019e-06
3.07962e-07
1.69367e-06
-3.68162e-08
1.69076e-06
-3.78616e-07
1.70109e-06
-7.19482e-07
1.72387e-06
-1.06132e-06
1.75791e-06
-1.40577e-06
1.80154e-06
-1.75415e-06
1.85262e-06
-2.10726e-06
1.90849e-06
-2.46529e-06
1.96587e-06
-2.82762e-06
2.02089e-06
-3.19261e-06
2.06901e-06
-3.55738e-06
2.10511e-06
-3.91753e-06
2.12349e-06
-4.2668e-06
2.1181e-06
-4.59678e-06
2.0828e-06
-4.89657e-06
2.0118e-06
-5.1525e-06
1.90029e-06
-5.34792e-06
1.74529e-06
-5.46315e-06
1.54669e-06
-5.47572e-06
1.30841e-06
-5.36094e-06
1.03966e-06
-5.09305e-06
7.5591e-07
-4.64692e-06
4.7942e-07
-4.00046e-06
2.38821e-07
-3.13754e-06
6.74607e-08
-2.05109e-06
-7.47731e-07
6.93223e-08
7.57725e-07
2.47459e-07
2.08668e-06
5.01179e-07
3.20387e-06
7.97597e-07
4.09911e-06
1.10724e-06
4.77462e-06
1.40599e-06
5.24205e-06
1.67602e-06
5.52029e-06
1.90581e-06
5.63298e-06
2.08947e-06
5.60601e-06
2.22575e-06
5.46539e-06
2.31685e-06
5.23572e-06
2.3673e-06
4.93915e-06
2.383e-06
4.59478e-06
2.37047e-06
4.2185e-06
2.33627e-06
3.82303e-06
2.28661e-06
3.41819e-06
2.22713e-06
3.01122e-06
2.16276e-06
2.60713e-06
2.09769e-06
2.20915e-06
2.03537e-06
1.81901e-06
1.97858e-06
1.43734e-06
1.92943e-06
1.06388e-06
1.88948e-06
6.97759e-07
1.85975e-06
3.37686e-07
1.84082e-06
-1.78776e-08
1.83278e-06
-3.70577e-07
1.83533e-06
-7.22036e-07
1.84775e-06
-1.07374e-06
1.8689e-06
-1.42692e-06
1.89718e-06
-1.78243e-06
1.93054e-06
-2.14062e-06
1.96643e-06
-2.50118e-06
2.00178e-06
-2.86297e-06
2.03301e-06
-3.22383e-06
2.056e-06
-3.58037e-06
2.06619e-06
-3.92772e-06
2.05867e-06
-4.25928e-06
2.02839e-06
-4.5665e-06
1.97042e-06
-4.8386e-06
1.8804e-06
-5.06249e-06
1.7551e-06
-5.22262e-06
1.5931e-06
-5.30115e-06
1.39563e-06
-5.27825e-06
1.16746e-06
-5.13277e-06
9.1771e-07
-4.8433e-06
6.60464e-07
-4.38967e-06
4.14934e-07
-3.75493e-06
2.04919e-07
-2.92753e-06
5.74037e-08
-1.90358e-06
-6.90327e-07
5.93339e-08
6.98391e-07
2.13436e-07
1.93257e-06
4.35619e-07
2.98169e-06
6.99121e-07
3.83561e-06
9.79388e-07
4.49436e-06
1.25565e-06
4.96579e-06
1.51183e-06
5.26411e-06
1.73675e-06
5.40806e-06
1.92387e-06
5.41889e-06
2.0706e-06
5.31866e-06
2.17749e-06
5.12883e-06
2.24739e-06
4.86926e-06
2.2846e-06
4.55757e-06
2.29429e-06
4.20882e-06
2.28189e-06
3.83543e-06
2.25278e-06
3.4473e-06
2.21199e-06
3.05201e-06
2.16404e-06
2.65508e-06
2.11286e-06
2.26032e-06
2.0618e-06
1.87008e-06
2.01355e-06
1.48559e-06
1.97026e-06
1.10717e-06
1.93354e-06
7.34486e-07
1.90447e-06
3.66755e-07
1.88369e-06
2.89883e-09
1.87141e-06
-3.58291e-07
1.86739e-06
-7.1802e-07
1.87101e-06
-1.07736e-06
1.88123e-06
-1.43714e-06
1.89659e-06
-1.79779e-06
1.91519e-06
-2.15922e-06
1.93469e-06
-2.52068e-06
1.95231e-06
-2.88059e-06
1.96482e-06
-3.23635e-06
1.96861e-06
-3.58417e-06
1.95974e-06
-3.91884e-06
1.93405e-06
-4.23359e-06
1.8874e-06
-4.51985e-06
1.81595e-06
-4.76714e-06
1.71648e-06
-4.96302e-06
1.58693e-06
-5.09308e-06
1.42698e-06
-5.14119e-06
1.23861e-06
-5.08988e-06
1.02684e-06
-4.921e-06
8.00231e-07
-4.61669e-06
5.7123e-07
-4.16067e-06
3.56163e-07
-3.53987e-06
1.74679e-07
-2.74605e-06
4.86019e-08
-1.7775e-06
-6.41725e-07
5.04083e-08
6.47983e-07
1.82512e-07
1.80047e-06
3.74895e-07
2.7893e-06
6.05842e-07
3.60466e-06
8.55055e-07
4.24514e-06
1.1049e-06
4.71594e-06
1.34122e-06
5.0278e-06
1.55365e-06
5.19563e-06
1.73555e-06
5.23699e-06
1.8836e-06
5.17061e-06
1.99721e-06
5.01521e-06
2.07794e-06
4.78853e-06
2.12881e-06
4.5067e-06
2.15376e-06
4.18386e-06
2.15723e-06
3.83197e-06
2.14372e-06
3.46081e-06
2.11761e-06
3.07812e-06
2.08293e-06
2.68976e-06
2.04327e-06
2.29998e-06
2.00173e-06
1.91162e-06
1.96088e-06
1.52643e-06
1.92281e-06
1.14524e-06
1.88908e-06
7.6821e-07
1.86083e-06
3.95006e-07
1.83874e-06
2.49936e-08
1.82307e-06
-3.42622e-07
1.8137e-06
-7.08648e-07
1.8101e-06
-1.07377e-06
1.81138e-06
-1.43842e-06
1.81625e-06
-1.80265e-06
1.82302e-06
-2.16599e-06
1.82964e-06
-2.52729e-06
1.83364e-06
-2.88459e-06
1.83223e-06
-3.23494e-06
1.8223e-06
-3.57424e-06
1.80052e-06
-3.89706e-06
1.76346e-06
-4.19654e-06
1.70781e-06
-4.4642e-06
1.63058e-06
-4.68992e-06
1.52949e-06
-4.86192e-06
1.40332e-06
-4.96691e-06
1.25239e-06
-4.99026e-06
1.07906e-06
-4.91655e-06
8.88155e-07
-4.7301e-06
6.87387e-07
-4.41592e-06
4.87488e-07
-3.96077e-06
3.02116e-07
-3.35449e-06
1.47351e-07
-2.59128e-06
4.0773e-08
-1.67092e-06
-6.00952e-07
4.23538e-08
6.0563e-07
1.54204e-07
1.68862e-06
3.18452e-07
2.62506e-06
5.1759e-07
3.40552e-06
7.35002e-07
4.02773e-06
9.55938e-07
4.49501e-06
1.1682e-06
4.81553e-06
1.36251e-06
5.00132e-06
1.53251e-06
5.06699e-06
1.67459e-06
5.02853e-06
1.78747e-06
4.90233e-06
1.87177e-06
4.70424e-06
1.92947e-06
4.449e-06
1.96353e-06
4.1498e-06
1.97744e-06
3.81806e-06
1.97492e-06
3.46333e-06
1.95966e-06
3.09338e-06
1.93516e-06
2.71426e-06
1.90461e-06
2.33053e-06
1.87081e-06
1.94543e-06
1.83612e-06
1.56112e-06
1.8025e-06
1.17886e-06
1.77147e-06
7.9925e-07
1.74411e-06
4.22366e-07
1.72113e-06
4.79667e-08
1.70287e-06
-3.24362e-07
1.68929e-06
-6.95063e-07
1.67998e-06
-1.06447e-06
1.67422e-06
-1.43266e-06
1.67091e-06
-1.79934e-06
1.66862e-06
-2.1637e-06
1.6656e-06
-2.52427e-06
1.65976e-06
-2.87875e-06
1.64874e-06
-3.22392e-06
1.62995e-06
-3.55544e-06
1.60064e-06
-3.86776e-06
1.55806e-06
-4.15395e-06
1.49957e-06
-4.40571e-06
1.42292e-06
-4.61327e-06
1.3265e-06
-4.7655e-06
1.20966e-06
-4.85007e-06
1.07308e-06
-4.85369e-06
9.19138e-07
-4.7626e-06
7.52228e-07
-4.56319e-06
5.7902e-07
-4.24271e-06
4.0853e-07
-3.79028e-06
2.5198e-07
-3.19794e-06
1.2236e-07
-2.46166e-06
3.37091e-08
-1.58227e-06
-5.67243e-07
3.5022e-08
5.70608e-07
1.28125e-07
1.59552e-06
2.65796e-07
2.48739e-06
4.34085e-07
3.23723e-06
6.19574e-07
3.84224e-06
8.10137e-07
4.30444e-06
9.9551e-07
4.63016e-06
1.16762e-06
4.82921e-06
1.3207e-06
4.91391e-06
1.45114e-06
4.89809e-06
1.55732e-06
4.79615e-06
1.6392e-06
4.62236e-06
1.698e-06
4.39019e-06
1.73586e-06
4.11194e-06
1.75544e-06
3.79847e-06
1.75974e-06
3.45903e-06
1.75181e-06
3.10131e-06
1.7346e-06
2.73147e-06
1.71086e-06
2.35427e-06
1.68304e-06
1.97324e-06
1.65327e-06
1.59088e-06
1.62332e-06
1.20882e-06
1.59458e-06
8.27987e-07
1.56811e-06
4.48837e-07
1.54461e-06
7.14689e-08
1.52444e-06
-3.04199e-07
1.50767e-06
-6.78288e-07
1.49402e-06
-1.05082e-06
1.48293e-06
-1.42157e-06
1.47352e-06
-1.78994e-06
1.46466e-06
-2.15484e-06
1.45489e-06
-2.5145e-06
1.44253e-06
-2.86639e-06
1.42565e-06
-3.20705e-06
1.40217e-06
-3.53196e-06
1.36988e-06
-3.83548e-06
1.32662e-06
-4.11069e-06
1.27035e-06
-4.34944e-06
1.19939e-06
-4.54231e-06
1.11261e-06
-4.67873e-06
1.00971e-06
-4.74717e-06
8.91491e-07
-4.73546e-06
7.6011e-07
-4.63122e-06
6.19348e-07
-4.42243e-06
4.74748e-07
-4.09811e-06
3.33652e-07
-3.64919e-06
2.05053e-07
-3.06934e-06
9.92422e-08
-2.35585e-06
2.72486e-08
-1.51028e-06
-5.39994e-07
2.82911e-08
5.42316e-07
1.03937e-07
1.51987e-06
2.16457e-07
2.37487e-06
3.54943e-07
3.09875e-06
5.08783e-07
3.6884e-06
6.68237e-07
4.14499e-06
8.24895e-07
4.4735e-06
9.7197e-07
4.68213e-06
1.10442e-06
4.78146e-06
1.21892e-06
4.78359e-06
1.31372e-06
4.70136e-06
1.38839e-06
4.54769e-06
1.4436e-06
4.33498e-06
1.4808e-06
4.07474e-06
1.502e-06
3.77727e-06
1.50951e-06
3.45152e-06
1.5058e-06
3.10503e-06
1.49327e-06
2.74399e-06
1.47424e-06
2.3733e-06
1.45078e-06
1.9967e-06
1.42473e-06
1.61693e-06
1.39766e-06
1.23589e-06
1.37081e-06
8.54834e-07
1.34516e-06
4.74487e-07
1.32139e-06
9.52428e-08
1.29989e-06
-2.82701e-07
1.28079e-06
-6.59193e-07
1.26397e-06
-1.03399e-06
1.24902e-06
-1.40662e-06
1.23532e-06
-1.77624e-06
1.222e-06
-2.14151e-06
1.20795e-06
-2.50045e-06
1.19187e-06
-2.85031e-06
1.17227e-06
-3.18745e-06
1.14755e-06
-3.50724e-06
1.11601e-06
-3.80394e-06
1.076e-06
-4.07068e-06
1.02598e-06
-4.29942e-06
9.64721e-07
-4.48105e-06
8.91424e-07
-4.60543e-06
8.05961e-07
-4.6617e-06
7.09062e-07
-4.63856e-06
6.02526e-07
-4.52469e-06
4.89386e-07
-4.30929e-06
3.74016e-07
-3.98274e-06
2.6214e-07
-3.53731e-06
1.60703e-07
-2.96791e-06
7.76018e-08
-2.27275e-06
2.12589e-08
-1.45393e-06
-5.18735e-07
2.20548e-08
5.20261e-07
8.1334e-08
1.46059e-06
1.69965e-07
2.28623e-06
2.79688e-07
2.98902e-06
4.02376e-07
3.56571e-06
5.30469e-07
4.0169e-06
6.57321e-07
4.34665e-06
7.77448e-07
4.56201e-06
8.86651e-07
4.67226e-06
9.82028e-07
4.68821e-06
1.06189e-06
4.62149e-06
1.12563e-06
4.48395e-06
1.17351e-06
4.28711e-06
1.20646e-06
4.04179e-06
1.22594e-06
3.7578e-06
1.23366e-06
3.44379e-06
1.23153e-06
3.10716e-06
1.22145e-06
2.75407e-06
1.20529e-06
2.38947e-06
1.18474e-06
2.01725e-06
1.16134e-06
1.64032e-06
1.13642e-06
1.26082e-06
1.11105e-06
8.80197e-07
1.08612e-06
4.99423e-07
1.06225e-06
1.19115e-07
1.03985e-06
-2.60307e-07
1.01913e-06
-6.38477e-07
1.00009e-06
-1.01494e-06
9.82502e-07
-1.38903e-06
9.65976e-07
-1.75972e-06
9.49923e-07
-2.12546e-06
9.33584e-07
-2.48411e-06
9.16037e-07
-2.83276e-06
8.96227e-07
-3.16764e-06
8.72995e-07
-3.48401e-06
8.45125e-07
-3.77607e-06
8.11415e-07
-4.03697e-06
7.70758e-07
-4.25877e-06
7.22251e-07
-4.43254e-06
6.65325e-07
-4.5485e-06
5.99888e-07
-4.59627e-06
5.2648e-07
-4.56516e-06
4.46414e-07
-4.44462e-06
3.61902e-07
-4.22478e-06
2.76132e-07
-3.89697e-06
1.93261e-07
-3.45444e-06
1.18336e-07
-2.89298e-06
5.70863e-08
-2.2115e-06
1.56248e-08
-1.41247e-06
-5.03111e-07
1.62153e-08
5.04046e-07
6.00215e-08
1.41678e-06
1.25838e-07
2.22042e-06
2.07753e-07
2.90711e-06
2.99881e-07
3.47359e-06
3.96666e-07
3.92011e-06
4.93137e-07
4.25018e-06
5.85106e-07
4.47004e-06
6.69276e-07
4.58809e-06
7.43275e-07
4.61421e-06
8.05625e-07
4.55914e-06
8.55648e-07
4.43392e-06
8.93353e-07
4.2494e-06
9.19289e-07
4.01585e-06
9.34413e-07
3.74267e-06
9.39948e-07
3.43826e-06
9.37274e-07
3.10984e-06
9.27825e-07
2.76352e-06
9.13013e-07
2.40428e-06
8.94171e-07
2.03609e-06
8.72514e-07
1.66198e-06
8.49107e-07
1.28423e-06
8.24861e-07
9.04444e-07
8.00516e-07
5.23767e-07
7.76652e-07
1.42979e-07
7.53684e-07
-2.37339e-07
7.31874e-07
-6.16667e-07
7.11334e-07
-9.94404e-07
6.92032e-07
-1.36973e-06
6.73799e-07
-1.74148e-06
6.56337e-07
-2.10799e-06
6.39219e-07
-2.46699e-06
6.21907e-07
-2.81545e-06
6.03759e-07
-3.14949e-06
5.84051e-07
-3.4643e-06
5.62009e-07
-3.75403e-06
5.36844e-07
-4.0118e-06
5.0781e-07
-4.22973e-06
4.74275e-07
-4.399e-06
4.35802e-07
-4.51003e-06
3.92247e-07
-4.55271e-06
3.43865e-07
-4.51677e-06
2.91411e-07
-4.39217e-06
2.36225e-07
-4.16959e-06
1.80295e-07
-3.84104e-06
1.26263e-07
-3.40041e-06
7.73777e-08
-2.8441e-06
3.73674e-08
-2.17149e-06
1.02422e-08
-1.38535e-06
-4.92868e-07
1.06794e-08
4.93367e-07
3.971e-08
1.38775e-06
8.35769e-08
2.17655e-06
1.385e-07
2.85219e-06
2.00652e-07
3.41143e-06
2.66347e-07
3.85442e-06
3.32214e-07
4.18431e-06
3.95337e-07
4.40692e-06
4.53351e-07
4.53007e-06
5.04483e-07
4.56308e-06
5.47548e-07
4.51608e-06
5.81913e-07
4.39956e-06
6.07425e-07
4.22389e-06
6.2433e-07
3.99894e-06
6.33181e-07
3.73382e-06
6.34749e-07
3.43669e-06
6.29944e-07
3.11464e-06
6.19743e-07
2.77372e-06
6.05135e-07
2.41889e-06
5.87073e-07
2.05415e-06
5.6645e-07
1.6826e-06
5.44072e-07
1.3066e-06
5.20646e-07
9.27869e-07
4.96782e-07
5.47632e-07
4.72985e-07
1.66777e-07
4.49661e-07
-2.14015e-07
4.27124e-07
-5.9413e-07
4.05597e-07
-9.72877e-07
3.85221e-07
-1.34936e-06
3.66056e-07
-1.72232e-06
3.48085e-07
-2.09002e-06
3.31217e-07
-2.45012e-06
3.15286e-07
-2.79952e-06
3.0006e-07
-3.13427e-06
2.85237e-07
-3.44948e-06
2.70461e-07
-3.73925e-06
2.5533e-07
-3.99667e-06
2.39424e-07
-4.21383e-06
2.22332e-07
-4.38191e-06
2.03695e-07
-4.49139e-06
1.8326e-07
-4.53228e-06
1.60941e-07
-4.49445e-06
1.36879e-07
-4.36811e-06
1.11515e-07
-4.14423e-06
8.56278e-08
-3.81515e-06
6.03721e-08
-3.37515e-06
3.72637e-08
-2.82099e-06
1.81312e-08
-2.15236e-06
5.01351e-09
-1.37223e-06
-4.87855e-07
5.35617e-09
4.88011e-07
2.01096e-08
1.373e-06
4.26639e-08
2.154e-06