/*--------------------------------*- C++ -*----------------------------------*\
  =========                 |
  \\      /  F ield         | OpenFOAM: The Open Source CFD Toolbox
   \\    /   O peration     | Website:  https://openfoam.org
    \\  /    A nd           | Version:  7
     \\/     M anipulation  |
\*---------------------------------------------------------------------------*/
FoamFile
{
    version     2.0;
    format      ascii;
    class       surfaceScalarField;
    location    "0.058";
    object      phi;
}
// * * * * * * * * * * * * * * * * * * * * * * * * * * * * * * * * * * * * * //

dimensions      [0 3 -1 0 0 0 0];

internalField   nonuniform List<scalar> 
4900
(
5.45464e-06
-5.45466e-06
9.95316e-06
-4.49852e-06
1.2694e-05
-2.74079e-06
1.44122e-05
-1.71827e-06
1.55284e-05
-1.11622e-06
1.62816e-05
-7.53155e-07
1.68127e-05
-5.31066e-07
1.72032e-05
-3.90525e-07
1.75004e-05
-2.97214e-07
1.77326e-05
-2.32192e-07
1.79175e-05
-1.84931e-07
1.80669e-05
-1.49368e-07
1.81887e-05
-1.21851e-07
1.82888e-05
-1.00083e-07
1.83714e-05
-8.25494e-08
1.84396e-05
-6.82111e-08
1.84959e-05
-5.63285e-08
1.85423e-05
-4.63579e-08
1.85802e-05
-3.78868e-08
1.86108e-05
-3.05942e-08
1.8635e-05
-2.4223e-08
1.86535e-05
-1.85616e-08
1.8667e-05
-1.34309e-08
1.86756e-05
-8.67481e-09
1.86798e-05
-4.1525e-09
1.86795e-05
2.70825e-10
1.86748e-05
4.71701e-09
1.86655e-05
9.32206e-09
1.86513e-05
1.42201e-08
1.86317e-05
1.95617e-08
1.86062e-05
2.55178e-08
1.85739e-05
3.22909e-08
1.85338e-05
4.01274e-08
1.84844e-05
4.93376e-08
1.84241e-05
6.03228e-08
1.83505e-05
7.36166e-08
1.82605e-05
8.99487e-08
1.81502e-05
1.10348e-07
1.80139e-05
1.36314e-07
1.78438e-05
1.7012e-07
1.76284e-05
2.15371e-07
1.73503e-05
2.78054e-07
1.69817e-05
3.68636e-07
1.64755e-05
5.06196e-07
1.57494e-05
7.26105e-07
1.46575e-05
1.09191e-06
1.29451e-05
1.71235e-06
1.0162e-05
2.78317e-06
5.55725e-06
4.60473e-06
5.55725e-06
-1.19281e-07
-5.33538e-06
1.83185e-06
-6.44965e-06
4.41343e-06
-5.32238e-06
6.72966e-06
-4.0345e-06
8.61021e-06
-2.99677e-06
1.00935e-05
-2.23646e-06
1.12592e-05
-1.6968e-06
1.21815e-05
-1.31278e-06
1.29187e-05
-1.03444e-06
1.35145e-05
-8.27937e-07
1.40006e-05
-6.71068e-07
1.44005e-05
-5.49274e-07
1.47315e-05
-4.52874e-07
1.50067e-05
-3.75289e-07
1.52361e-05
-3.11939e-07
1.54275e-05
-2.59548e-07
1.55869e-05
-2.1571e-07
1.57191e-05
-1.78612e-07
1.58281e-05
-1.46855e-07
1.59168e-05
-1.19332e-07
1.59877e-05
-9.51433e-08
1.60427e-05
-7.35416e-08
1.60832e-05
-5.38865e-08
1.61101e-05
-3.56142e-08
1.61242e-05
-1.82119e-08
1.61256e-05
-1.19887e-09
1.61145e-05
1.58981e-08
1.60902e-05
3.35534e-08
1.60522e-05
5.227e-08
1.59991e-05
7.25971e-08
1.59295e-05
9.51573e-08
1.58411e-05
1.20681e-07
1.57312e-05
1.5005e-07
1.55962e-05
1.84361e-07
1.54315e-05
2.25015e-07
1.52312e-05
2.73842e-07
1.49879e-05
3.33296e-07
1.46915e-05
4.06747e-07
1.43289e-05
4.98933e-07
1.38823e-05
6.16699e-07
1.33275e-05
7.70178e-07
1.26308e-05
9.74728e-07
1.17454e-05
1.25401e-06
1.0607e-05
1.64464e-06
9.13142e-06
2.20169e-06
7.22421e-06
2.99912e-06
4.83141e-06
4.10516e-06
2.12096e-06
5.49361e-06
1.07166e-08
6.71498e-06
5.56796e-06
-1.08241e-06
-4.25297e-06
-7.53992e-07
-6.77806e-06
5.89751e-07
-6.66612e-06
2.30231e-06
-5.74706e-06
4.01396e-06
-4.70842e-06
5.56607e-06
-3.78856e-06
6.91138e-06
-3.04212e-06
8.05346e-06
-2.45486e-06
9.01484e-06
-1.99582e-06
9.82223e-06
-1.63533e-06
1.05007e-05
-1.34949e-06
1.10716e-05
-1.12021e-06
1.15528e-05
-9.341e-07
1.19589e-05
-7.81322e-07
1.23015e-05
-6.5457e-07
1.25903e-05
-5.48356e-07
1.28331e-05
-4.5849e-07
1.30362e-05
-3.81713e-07
1.32048e-05
-3.15442e-07
1.3343e-05
-2.57587e-07
1.34543e-05
-2.06418e-07
1.35412e-05
-1.60471e-07
1.36058e-05
-1.18476e-07
1.36495e-05
-7.93013e-08
1.36732e-05
-4.19066e-08
1.36773e-05
-5.30856e-09
1.36617e-05
3.14616e-08
1.36259e-05
6.93809e-08
1.35687e-05
1.09481e-07
1.34884e-05
1.52884e-07
1.33827e-05
2.00854e-07
1.32485e-05
2.54856e-07
1.30819e-05
3.16641e-07
1.2878e-05
3.88349e-07
1.26303e-05
4.72663e-07
1.23311e-05
5.73013e-07
1.19706e-05
6.9387e-07
1.15361e-05
8.41162e-07
1.10122e-05
1.02287e-06
1.0379e-05
1.24989e-06
9.61202e-06
1.53717e-06
8.68154e-06
1.90521e-06
7.554e-06
2.38155e-06
6.19752e-06
3.00111e-06
4.5974e-06
3.80182e-06
2.79129e-06
4.80523e-06
9.37897e-07
5.95855e-06
-5.70687e-07
7.00219e-06
-1.03816e-06
7.18245e-06
4.5298e-06
-9.12996e-07
-3.33997e-06
-1.34135e-06
-6.34971e-06
-9.36376e-07
-7.0711e-06
2.20769e-08
-6.70552e-06
1.24022e-06
-5.92656e-06
2.51856e-06
-5.0669e-06
3.74432e-06
-4.26787e-06
4.86476e-06
-3.5753e-06
5.86202e-06
-2.99308e-06
6.73625e-06
-2.50956e-06
7.49582e-06
-2.10907e-06
8.15223e-06
-1.77661e-06
8.71743e-06
-1.4993e-06
9.2027e-06
-1.2666e-06
9.61816e-06
-1.07003e-06
9.97265e-06
-9.02843e-07
1.02738e-05
-7.59592e-07
1.05279e-05
-6.35878e-07
1.07406e-05
-5.28088e-07
1.09162e-05
-4.33213e-07
1.10585e-05
-3.48702e-07
1.11703e-05
-2.72348e-07
1.12541e-05
-2.02201e-07
1.13113e-05
-1.36499e-07
1.1343e-05
-7.36022e-08
1.13496e-05
-1.19441e-08
1.1331e-05
5.0021e-08
1.12866e-05
1.13861e-07
1.12148e-05
1.81225e-07
1.11138e-05
2.53896e-07
1.09808e-05
3.33864e-07
1.08122e-05
4.23406e-07
1.06037e-05
5.252e-07
1.03496e-05
6.42452e-07
1.00432e-05
7.79088e-07
9.67619e-06
9.39978e-07
9.23881e-06
1.13125e-06
8.7193e-06
1.36068e-06
8.10402e-06
1.63816e-06
7.37764e-06
1.97626e-06
6.52415e-06
2.39067e-06
5.52921e-06
2.90015e-06
4.38561e-06
3.52515e-06
3.10388e-06
4.28284e-06
1.73158e-06
5.17412e-06
3.8352e-07
6.15328e-06
-7.24538e-07
7.06661e-06
-1.2657e-06
7.54336e-06
-9.15863e-07
6.83261e-06
3.61394e-06
-6.64709e-07
-2.67526e-06
-1.29699e-06
-5.71742e-06
-1.41757e-06
-6.95052e-06
-1.04161e-06
-7.08148e-06
-3.23606e-07
-6.64456e-06
5.7889e-07
-5.9694e-06
1.54763e-06
-5.23661e-06
2.50672e-06
-4.53439e-06
3.41295e-06
-3.89931e-06
4.2449e-06
-3.34151e-06
4.99455e-06
-2.85872e-06
5.66155e-06
-2.44361e-06
6.24964e-06
-2.08739e-06
6.76448e-06
-1.78144e-06
7.21244e-06
-1.51799e-06
7.59987e-06
-1.29028e-06
7.93276e-06
-1.09248e-06
8.21652e-06
-9.19635e-07
8.45593e-06
-7.67496e-07
8.6551e-06
-6.32387e-07
8.81749e-06
-5.11095e-07
8.94591e-06
-4.0077e-07
9.04255e-06
-2.9884e-07
9.10899e-06
-2.02934e-07
9.1462e-06
-1.10818e-07
9.15459e-06
-2.03343e-08
9.13396e-06
7.06551e-08
9.08349e-06
1.64327e-07
9.00176e-06
2.6296e-07
8.88665e-06
3.69004e-07
8.73536e-06
4.85158e-07
8.5443e-06
6.14468e-07
8.30906e-06
7.60436e-07
8.02435e-06
9.27162e-07
7.68393e-06
1.11951e-06
7.2806e-06
1.3433e-06
6.80632e-06
1.60554e-06
6.25239e-06
1.91461e-06
5.6101e-06
2.28045e-06
4.87188e-06
2.71448e-06
4.03354e-06
3.22901e-06
3.09819e-06
3.8355e-06
2.08281e-06
4.54053e-06
1.02842e-06
5.33724e-06
1.36949e-08
6.18884e-06
-8.32115e-07
6.99909e-06
-1.32918e-06
7.56367e-06
-1.29285e-06
7.50704e-06
-6.84931e-07
6.22468e-06
2.92901e-06
-4.70692e-07
-2.20457e-06
-1.09936e-06
-5.08875e-06
-1.46737e-06
-6.58252e-06
-1.46809e-06
-7.08075e-06
-1.14731e-06
-6.96534e-06
-6.00007e-07
-6.5167e-06
8.01579e-08
-5.91678e-06
8.19325e-07
-5.27355e-06
1.56586e-06
-4.64584e-06
2.2867e-06
-4.06235e-06
2.96245e-06
-3.53447e-06
3.58306e-06
-3.06422e-06
4.14454e-06
-2.64886e-06
4.64664e-06
-2.28354e-06
5.09129e-06
-1.96265e-06
5.4816e-06
-1.68058e-06
5.82116e-06
-1.43204e-06
6.11367e-06
-1.21215e-06
6.36268e-06
-1.0165e-06
6.5714e-06
-8.41108e-07
6.74266e-06
-6.82347e-07
6.87879e-06
-5.36906e-07
6.98167e-06
-4.01718e-07
7.05263e-06
-2.73898e-07
7.0925e-06
-1.50685e-07
7.10155e-06
-2.93848e-08
7.07951e-06
9.26918e-08
7.02556e-06
2.18285e-07
6.93826e-06
3.50252e-07
6.81563e-06
4.9164e-07
6.65503e-06
6.45758e-07
6.45322e-06
8.16273e-07
6.20636e-06
1.0073e-06
5.91e-06
1.22352e-06
5.55924e-06
1.47028e-06
5.14885e-06
1.75369e-06
4.6737e-06
2.08069e-06
4.12931e-06
2.45899e-06
3.51296e-06
2.8968e-06
2.82537e-06
3.40208e-06
2.07336e-06
3.98102e-06
1.27386e-06
4.635e-06
4.59353e-07
5.35504e-06
-3.15619e-07
6.11221e-06
-9.68893e-07
6.84211e-06
-1.39165e-06
7.42185e-06
-1.46876e-06
7.64078e-06
-1.13582e-06
7.1741e-06
-4.96471e-07
5.58533e-06
2.43254e-06
-3.39715e-07
-1.86486e-06
-9.0146e-07
-4.52701e-06
-1.36304e-06
-6.12093e-06
-1.58307e-06
-6.86073e-06
-1.54308e-06
-7.00532e-06
-1.28513e-06
-6.77465e-06
-8.70531e-07
-6.33138e-06
-3.58345e-07
-5.78574e-06
2.03164e-07
-5.20735e-06
7.7816e-07
-4.63735e-06
1.34183e-06
-4.09815e-06
1.87809e-06
-3.60048e-06
2.37725e-06
-3.14803e-06
2.83416e-06
-2.74044e-06
3.24669e-06
-2.37517e-06
3.61468e-06
-2.04858e-06
3.93919e-06
-1.75655e-06
4.22194e-06
-1.49489e-06
4.46491e-06
-1.25948e-06
4.67018e-06
-1.04638e-06
4.83967e-06
-8.51831e-07
4.97505e-06
-6.72285e-07
5.07768e-06
-5.04348e-07
5.14854e-06
-3.44757e-07
5.18819e-06
-1.90337e-07
5.19676e-06
-3.79525e-08
5.1739e-06
1.15545e-07
5.11882e-06
2.73367e-07
5.03023e-06
4.38846e-07
4.90637e-06
6.15499e-07
4.74504e-06
8.0709e-07
4.54361e-06
1.01769e-06
4.29915e-06
1.25176e-06
4.0085e-06
1.51417e-06
3.66852e-06
1.81026e-06
3.27644e-06
2.14576e-06
2.83043e-06
2.5267e-06
2.33038e-06
2.95904e-06
1.7792e-06
3.44797e-06
1.18458e-06
3.9967e-06
5.61365e-07
4.60423e-06
-6.53235e-08
5.26169e-06
-6.56831e-07
5.94655e-06
-1.1585e-06
6.61388e-06
-1.50061e-06
7.18423e-06
-1.60768e-06
7.52892e-06
-1.42348e-06
7.45658e-06
-9.5938e-07
6.71e-06
-3.66473e-07
4.99243e-06
2.06607e-06
-2.54783e-07
-1.61007e-06
-7.40456e-07
-4.04133e-06
-1.22026e-06
-5.64113e-06
-1.55751e-06
-6.52348e-06
-1.70319e-06
-6.85965e-06
-1.66318e-06
-6.81466e-06
-1.47013e-06
-6.52443e-06
-1.1649e-06
-6.09097e-06
-7.86449e-07
-5.5858e-06
-3.6749e-07
-5.05631e-06
6.65996e-08
-4.53224e-06
4.97245e-07
-4.03112e-06
9.11531e-07
-3.56231e-06
1.30096e-06
-3.12987e-06
1.66029e-06
-2.73451e-06
1.98666e-06
-2.37495e-06
2.27881e-06
-2.0487e-06
2.53653e-06
-1.75262e-06
2.7603e-06
-1.48325e-06
2.95092e-06
-1.23699e-06
3.10932e-06
-1.01023e-06
3.23641e-06
-7.99382e-07
3.33298e-06
-6.00911e-07
3.39955e-06
-4.11333e-07
3.43641e-06
-2.27195e-07
3.4435e-06
-4.50426e-08
3.42044e-06
1.38608e-07
3.36649e-06
3.27316e-07
3.28058e-06
5.24751e-07
3.16134e-06
7.34742e-07
3.00712e-06
9.61312e-07
2.8161e-06
1.20871e-06
2.58643e-06
1.48143e-06
2.31644e-06
1.78417e-06
2.0049e-06
2.12179e-06
1.65154e-06
2.49912e-06
1.25763e-06
2.92061e-06
8.26884e-07
3.38979e-06
3.66627e-07
3.90823e-06
-1.10694e-07
4.47403e-06
-5.85752e-07
5.07929e-06
-1.03058e-06
5.70651e-06
-1.40743e-06
6.32339e-06
-1.6695e-06
6.87595e-06
-1.76571e-06
7.28044e-06
-1.65264e-06
7.41584e-06
-1.31689e-06
7.12083e-06
-8.0895e-07
6.20206e-06
-2.81048e-07
4.46452e-06
1.78502e-06
-1.99194e-07
-1.41088e-06
-6.17606e-07
-3.62292e-06
-1.08292e-06
-5.17582e-06
-1.47685e-06
-6.12955e-06
-1.73995e-06
-6.59655e-06
-1.85675e-06
-6.69786e-06
-1.83851e-06
-6.54266e-06
-1.70944e-06
-6.22004e-06
-1.49753e-06
-5.79771e-06
-1.22938e-06
-5.32445e-06
-9.27822e-07
-4.8338e-06
-6.11145e-07
-4.3478e-06
-2.9333e-07
-3.88013e-06
1.53911e-08
-3.43859e-06
3.07828e-07
-3.02695e-06
5.79146e-07
-2.64627e-06
8.26276e-07
-2.29583e-06
1.04742e-06
-1.97376e-06
1.24166e-06
-1.67749e-06
1.40864e-06
-1.40398e-06
1.54836e-06
-1.14995e-06
1.66096e-06
-9.11981e-07
1.74662e-06
-6.86568e-07
1.80544e-06
-4.70156e-07
1.8374e-06
-2.59154e-07
1.84229e-06
-4.99315e-08
1.81969e-06
1.61201e-07
1.76901e-06
3.78005e-07
1.68942e-06
6.04338e-07
1.58e-06
8.44166e-07
1.43973e-06
1.10157e-06
1.26769e-06
1.38075e-06
1.06316e-06
1.68596e-06
8.25921e-07
2.02141e-06
5.56583e-07
2.39113e-06
2.5706e-07
2.79864e-06
-6.88114e-08
3.24648e-06
-4.14483e-07
3.73546e-06
-7.69747e-07
4.2635e-06
-1.11969e-06
4.82397e-06
-1.4437e-06
5.4033e-06
-1.71493e-06
5.97775e-06
-1.90083e-06
6.50929e-06
-1.96578e-06
6.9409e-06
-1.87732e-06
7.19198e-06
-1.61746e-06
7.15598e-06
-1.19976e-06
6.70314e-06
-6.9027e-07
5.69256e-06
-2.24373e-07
3.99863e-06
1.56064e-06
-1.6185e-07
-1.24903e-06
-5.25677e-07
-3.25909e-06
-9.64875e-07
-4.73662e-06
-1.38165e-06
-5.71277e-06
-1.71653e-06
-6.26166e-06
-1.94309e-06
-6.4713e-06
-2.05828e-06
-6.42748e-06
-2.07309e-06
-6.20524e-06
-2.00525e-06
-5.86555e-06
-1.87438e-06
-5.45532e-06
-1.69914e-06
-5.00905e-06
-1.49578e-06
-4.55115e-06
-1.27774e-06
-4.09817e-06
-1.05561e-06
-3.66071e-06
-8.37489e-07
-3.24507e-06
-6.29347e-07
-2.85441e-06
-4.35483e-07
-2.48969e-06
-2.58883e-07
-2.15036e-06
-1.01558e-07
-1.83481e-06
3.51777e-08
-1.54071e-06
1.5049e-07
-1.26526e-06
2.43848e-07
-1.00534e-06
3.14889e-07
-7.57609e-07
3.63321e-07
-5.18588e-07
3.88851e-07
-2.84685e-07
3.9114e-07
-5.22204e-08
3.69783e-07
1.82558e-07
3.24312e-07
4.23476e-07
2.54226e-07
6.74423e-07
1.59054e-07
9.39338e-07
3.84426e-08
1.22219e-06
-1.07697e-07
1.52689e-06
-2.79001e-07
1.85726e-06
-4.74384e-07
2.2168e-06
-6.91706e-07
2.60846e-06
-9.2733e-07
3.03427e-06
-1.17559e-06
3.49475e-06
-1.4282e-06
3.98806e-06
-1.67357e-06
4.50887e-06
-1.8963e-06
5.04669e-06
-2.07684e-06
5.58384e-06
-2.19195e-06
6.09285e-06
-2.21617e-06
6.53352e-06
-2.12537e-06
6.8501e-06
-1.90282e-06
6.96944e-06
-1.54851e-06
6.80167e-06
-1.09087e-06
6.2455e-06
-5.98481e-07
5.20017e-06
-1.8557e-07
3.58572e-06
1.37507e-06
-1.36026e-07
-1.113e-06
-4.57029e-07
-2.93809e-06
-8.68186e-07
-4.32547e-06
-1.28992e-06
-5.29104e-06
-1.66731e-06
-5.88427e-06
-1.96946e-06
-6.16916e-06
-2.18454e-06
-6.21239e-06
-2.31393e-06
-6.07585e-06
-2.36683e-06
-5.81265e-06
-2.35622e-06
-5.46593e-06
-2.29607e-06
-5.06919e-06
-2.19973e-06
-4.6475e-06
-2.07901e-06
-4.21889e-06
-1.94389e-06
-3.79583e-06
-1.8025e-06
-3.38646e-06
-1.66125e-06
-2.99566e-06
-1.52508e-06
-2.62586e-06
-1.39773e-06
-2.27772e-06
-1.28197e-06
-1.95057e-06
-1.17983e-06
-1.64285e-06
-1.0928e-06
-1.3523e-06
-1.02194e-06
-1.07619e-06
-9.68072e-07
-8.11479e-07
-9.31808e-07
-5.54852e-07
-9.13654e-07
-3.02838e-07
-9.14041e-07
-5.18338e-08
-9.33337e-07
2.01855e-07
-9.71845e-07
4.61984e-07
-1.02976e-06
7.32336e-07
-1.1071e-06
1.01668e-06
-1.20362e-06
1.3187e-06
-1.31864e-06
1.64192e-06
-1.45089e-06
1.98951e-06
-1.59823e-06
2.36414e-06
-1.75737e-06
2.7676e-06
-1.92351e-06
3.2004e-06
-2.08992e-06
3.66116e-06
-2.24758e-06
4.14572e-06
-2.3848e-06
4.6461e-06
-2.48715e-06
5.14903e-06
-2.53765e-06
5.63434e-06
-2.5178e-06
6.07301e-06
-2.4096e-06
6.42532e-06
-2.19908e-06
6.63957e-06
-1.88157e-06
6.65193e-06
-1.46866e-06
6.38875e-06
-9.95634e-07
5.77247e-06
-5.27291e-07
4.73183e-06
-1.57993e-07
3.21642e-06
1.21708e-06
-1.17687e-07
-9.95316e-07
-4.05519e-07
-2.65026e-06
-7.90759e-07
-3.94023e-06
-1.20866e-06
-4.87314e-06
-1.61035e-06
-5.48258e-06
-1.9641e-06
-5.81541e-06
-2.25321e-06
-5.92328e-06
-2.47249e-06
-5.85657e-06
-2.62454e-06
-5.6606e-06
-2.71662e-06
-5.37385e-06
-2.75821e-06
-5.0276e-06
-2.75942e-06
-4.64629e-06
-2.72993e-06
-4.24838e-06
-2.67846e-06
-3.84729e-06
-2.61255e-06
-3.45238e-06
-2.53845e-06
-3.06976e-06
-2.46129e-06
-2.70303e-06
-2.38514e-06
-2.35387e-06
-2.31321e-06
-2.0225e-06
-2.248e-06
-1.70806e-06
-2.19142e-06
-1.40887e-06
-2.14496e-06
-1.12266e-06
-2.10973e-06
-8.46707e-07
-2.0866e-06
-5.7798e-07
-2.07623e-06
-3.13212e-07
-2.07908e-06
-4.89793e-08
-2.09547e-06
2.18246e-07
-2.12553e-06
4.9204e-07
-2.16916e-06
7.75964e-07
-2.22597e-06
1.0735e-06
-2.29521e-06
1.38794e-06
-2.37557e-06
1.72228e-06
-2.46507e-06
2.07901e-06
-2.56082e-06
2.45989e-06
-2.6588e-06
2.86558e-06
-2.75358e-06
3.29518e-06
-2.83808e-06
3.74566e-06
-2.90336e-06
4.21101e-06
-2.93861e-06
4.68134e-06
-2.93126e-06
5.14168e-06
-2.86769e-06
5.57077e-06
-2.73442e-06
5.93974e-06
-2.5203e-06
6.2112e-06
-2.2196e-06
6.33888e-06
-1.83627e-06
6.2686e-06
-1.38872e-06
5.9412e-06
-9.14265e-07
5.29801e-06
-4.71401e-07
4.28896e-06
-1.37673e-07
2.88269e-06
1.07941e-06
-1.04372e-07
-8.90944e-07
-3.66604e-07
-2.38803e-06
-7.29436e-07
-3.57739e-06
-1.13973e-06
-4.46284e-06
-1.55465e-06
-5.06767e-06
-1.94351e-06
-5.42654e-06
-2.28727e-06
-5.57952e-06
-2.57649e-06
-5.56735e-06
-2.80893e-06
-5.42816e-06
-2.98721e-06
-5.19558e-06
-3.11683e-06
-4.89798e-06
-3.20477e-06
-4.55835e-06
-3.25838e-06
-4.19476e-06
-3.28481e-06
-3.82086e-06
-3.29056e-06
-3.44662e-06
-3.28138e-06
-3.07894e-06
-3.26215e-06
-2.72226e-06
-3.23696e-06
-2.37906e-06
-3.20916e-06
-2.05029e-06
-3.18148e-06
-1.73574e-06
-3.15609e-06
-1.43427e-06
-3.13469e-06
-1.14406e-06
-3.11862e-06
-8.62776e-07
-3.1089e-06
-5.87708e-07
-3.10624e-06
-3.15867e-07
-3.11114e-06
-4.40826e-08
-3.12381e-06
2.30922e-07
-3.14423e-06
5.12453e-07
-3.17203e-06
8.03766e-07
-3.2065e-06
1.10797e-06
-3.24646e-06
1.4279e-06
-3.29016e-06
1.76598e-06
-3.33513e-06
2.12398e-06
-3.37804e-06
2.50279e-06
-3.41451e-06
2.90204e-06
-3.43897e-06
3.31964e-06
-3.44455e-06
3.75124e-06
-3.42305e-06
4.18951e-06
-3.3651e-06
4.62339e-06
-3.26055e-06
5.03714e-06
-3.09933e-06
5.40954e-06
-2.87271e-06
5.71313e-06
-2.57535e-06
5.91383e-06
-2.20784e-06
5.97137e-06
-1.77989e-06
5.84066e-06
-1.3135e-06
5.47481e-06
-8.4526e-07
4.82978e-06
-4.26858e-07
3.87056e-06
-1.22214e-07
2.57805e-06
9.57194e-07
-9.45339e-08
-7.9641e-07
-3.37005e-07
-2.14556e-06
-6.81133e-07
-3.23327e-06
-1.08271e-06
-4.06126e-06
-1.50428e-06
-4.6461e-06
-1.91707e-06
-5.01375e-06
-2.3012e-06
-5.1954e-06
-2.64464e-06
-5.22391e-06
-2.94175e-06
-5.13105e-06
-3.19153e-06
-4.9458e-06
-3.39617e-06
-4.69333e-06
-3.5598e-06
-4.39473e-06
-3.6875e-06
-4.06706e-06
-3.78471e-06
-3.72366e-06
-3.85673e-06
-3.37461e-06
-3.90848e-06
-3.02719e-06
-3.94436e-06
-2.68637e-06
-3.96823e-06
-2.35519e-06
-3.98334e-06
-2.03518e-06
-3.99244e-06
-1.72665e-06
-3.99776e-06
-1.42895e-06
-4.00112e-06
-1.1407e-06
-4.00394e-06
-8.59953e-07
-4.0073e-06
-5.84351e-07
-4.01194e-06
-3.11225e-07
-4.01831e-06
-3.77114e-08
-4.02655e-06
2.39155e-07
-4.03645e-06
5.22354e-07
-4.04746e-06
8.14775e-07
-4.05859e-06
1.11911e-06
-4.06839e-06
1.4377e-06
-4.0748e-06
1.77239e-06
-4.07509e-06
2.12427e-06
-4.06576e-06
2.49346e-06
-4.04242e-06
2.8787e-06
-3.99975e-06
3.27698e-06
-3.93152e-06
3.683e-06
-3.83066e-06
4.08865e-06
-3.68959e-06
4.48232e-06
-3.50076e-06
4.84831e-06
-3.2575e-06
5.16628e-06
-2.95528e-06
5.41091e-06
-2.59342e-06
5.55198e-06
-2.17716e-06
5.5551e-06
-1.71983e-06
5.38332e-06
-1.24483e-06
4.99981e-06
-7.86764e-07
4.37171e-06
-3.90833e-07
3.47463e-06
-1.1014e-07
2.29735e-06
8.47054e-07
-8.71699e-08
-7.0924e-07
-3.14364e-07
-1.91836e-06
-6.43197e-07
-2.90443e-06
-1.03628e-06
-3.66818e-06
-1.46071e-06
-4.22166e-06
-1.88988e-06
-4.58458e-06
-2.30393e-06
-4.78135e-06
-2.6894e-06
-4.83844e-06
-3.03828e-06
-4.78217e-06
-3.3469e-06
-4.63718e-06
-3.61474e-06
-4.42549e-06
-3.84348e-06
-4.16599e-06
-4.03612e-06
-3.87441e-06
-4.19642e-06
-3.56336e-06
-4.3284e-06
-3.24263e-06
-4.43602e-06
-2.91957e-06
-4.52305e-06
-2.59934e-06
-4.59289e-06
-2.28535e-06
-4.64855e-06
-1.97952e-06
-4.69261e-06
-1.68258e-06
-4.72727e-06
-1.39429e-06
-4.75431e-06
-1.11366e-06
-4.77514e-06
-8.39121e-07
-4.79083e-06
-5.68664e-07
-4.80209e-06
-2.99965e-07
-4.8093e-06
-3.04999e-08
-4.8125e-06
2.42353e-07
-4.81135e-06
5.21209e-07
-4.80514e-06
8.08566e-07
-4.79271e-06
1.10668e-06
-4.77242e-06
1.4174e-06
-4.74207e-06
1.74203e-06
-4.69887e-06
2.08107e-06
-4.63937e-06
2.43397e-06
-4.55946e-06
2.79879e-06
-4.45435e-06
3.17187e-06
-4.3187e-06
3.54736e-06
-4.14683e-06
3.91678e-06
-3.93309e-06
4.26858e-06
-3.67244e-06
4.58766e-06
-3.3613e-06
4.85513e-06
-2.99865e-06
5.04826e-06
-2.58746e-06
5.14079e-06
-2.13618e-06
5.10382e-06
-1.66024e-06
4.90739e-06
-1.18321e-06
4.52278e-06
-7.37077e-07
3.92557e-06
-3.61326e-07
3.09888e-06
-1.00512e-07
2.03654e-06
7.46542e-07
-8.16052e-08
-6.27635e-07
-2.96971e-07
-1.703e-06
-6.13463e-07
-2.58794e-06
-9.98878e-07
-3.28277e-06
-1.42409e-06
-3.79645e-06
-1.86454e-06
-4.14413e-06
-2.3009e-06
-4.34499e-06
-2.71897e-06
-4.42036e-06
-3.10921e-06
-4.39193e-06
-3.46594e-06
-4.28045e-06
-3.78654e-06
-4.10489e-06
-4.07063e-06
-3.88191e-06
-4.31939e-06
-3.62564e-06
-4.53503e-06
-3.34772e-06
-4.72028e-06
-3.05739e-06
-4.87813e-06
-2.76171e-06
-5.0116e-06
-2.46587e-06
-5.12355e-06
-2.1734e-06
-5.2166e-06
-1.88647e-06
-5.2931e-06
-1.60609e-06
-5.35504e-06
-1.33234e-06
-5.40411e-06
-1.06459e-06
-5.44162e-06
-8.01603e-07
-5.46858e-06
-5.41706e-07
-5.48563e-06
-2.82923e-07
-5.49305e-06
-2.3079e-08
-5.49078e-06
2.4009e-07
-5.4784e-06
5.08823e-07
-5.45505e-06
7.85222e-07
-5.41949e-06
1.07112e-06
-5.37e-06
1.36791e-06
-5.30438e-06
1.67641e-06
-5.21993e-06
1.99663e-06
-5.11345e-06
2.32749e-06
-4.98127e-06
2.66661e-06
-4.81933e-06
3.00992e-06
-4.62335e-06
3.35138e-06
-4.38912e-06
3.68256e-06
-4.11289e-06
3.99234e-06
-3.79193e-06
4.2667e-06
-3.42534e-06
4.48854e-06
-3.01496e-06
4.63789e-06
-2.56647e-06
4.6923e-06
-2.09049e-06
4.62784e-06
-1.60351e-06
4.42042e-06
-1.12852e-06
4.04779e-06
-6.94792e-07
3.49184e-06
-3.36924e-07
2.74101e-06
-9.27171e-08
1.79233e-06
6.53825e-07
-7.73734e-08
-5.50262e-07
-2.83576e-07
-1.49679e-06
-5.90206e-07
-2.28131e-06
-9.69017e-07
-2.90396e-06
-1.39392e-06
-3.37155e-06
-1.84223e-06
-3.69581e-06
-2.29532e-06
-3.8919e-06
-2.73873e-06
-3.97696e-06
-3.16192e-06
-3.96874e-06
-3.55779e-06
-3.88458e-06
-3.92207e-06
-3.74061e-06
-4.25272e-06
-3.55125e-06
-4.54938e-06
-3.32899e-06
-4.81283e-06
-3.08427e-06
-5.04465e-06
-2.82556e-06
-5.24686e-06
-2.5595e-06
-5.4217e-06
-2.29103e-06
-5.57143e-06
-2.02367e-06
-5.69824e-06
-1.75966e-06
-5.80413e-06
-1.5002e-06
-5.89086e-06
-1.24561e-06
-5.95993e-06
-9.95529e-07
-6.01252e-06
-7.49015e-07
-6.0495e-06
-5.04722e-07
-6.07142e-06
-2.61001e-07
-6.07848e-06
-1.60198e-08
-6.07052e-06
2.32132e-07
-6.04703e-06
4.85326e-07
-6.00709e-06
7.45284e-07
-5.94941e-06
1.01344e-06
-5.8723e-06
1.2908e-06
-5.77366e-06
1.57777e-06
-5.65099e-06
1.87396e-06
-5.50147e-06
2.17797e-06
-5.322e-06
2.48714e-06
-5.10935e-06
2.79728e-06
-4.86037e-06
3.1024e-06
-4.57228e-06
3.39447e-06
-4.2431e-06
3.66316e-06
-3.87217e-06
3.89577e-06
-3.46082e-06
4.07719e-06
-3.01315e-06
4.19021e-06
-2.5368e-06
4.21596e-06
-2.04378e-06
4.13481e-06
-1.55098e-06
3.92762e-06
-1.08041e-06
3.57721e-06
-6.588e-07
3.07024e-06
-3.16622e-07
2.39884e-06
-8.6341e-08
1.56205e-06
5.67484e-07
-7.41447e-08
-4.76117e-07
-2.73255e-07
-1.29768e-06
-5.72071e-07
-1.98249e-06
-9.45363e-07
-2.53066e-06
-1.36947e-06
-2.94745e-06
-1.82332e-06
-3.24196e-06
-2.28903e-06
-3.42619e-06
-2.75214e-06
-3.51384e-06
-3.20152e-06
-3.51937e-06
-3.62904e-06
-3.45706e-06
-4.02919e-06
-3.34046e-06
-4.39861e-06
-3.18183e-06
-4.73562e-06
-2.99198e-06
-5.03981e-06
-2.78007e-06
-5.3117e-06
-2.55367e-06
-5.55241e-06
-2.3188e-06
-5.76341e-06
-2.08003e-06
-5.94639e-06
-1.84069e-06
-6.10305e-06
-1.60301e-06
-6.23501e-06
-1.36824e-06
-6.34376e-06
-1.13686e-06
-6.43057e-06
-9.08722e-07
-6.49644e-06
-6.83138e-07
-6.54212e-06
-4.59044e-07
-6.56803e-06
-2.35098e-07
-6.57426e-06
-9.79021e-09
-6.56058e-06
2.18451e-07
-6.5264e-06
4.51155e-07
-6.47081e-06
6.89691e-07
-6.39252e-06
9.35147e-07
-6.28991e-06
1.18819e-06
-6.16105e-06
1.44891e-06
-6.00377e-06
1.71667e-06
-5.81566e-06
1.98986e-06
-5.59427e-06
2.26575e-06
-5.33723e-06
2.54024e-06
-5.04249e-06
2.80766e-06
-4.70863e-06
3.06061e-06
-4.33525e-06
3.28978e-06
-3.92344e-06
3.48396e-06
-3.47637e-06
3.63012e-06
-2.99986e-06
3.71369e-06
-2.50297e-06
3.71907e-06
-1.99853e-06
3.63038e-06
-1.50342e-06
3.4325e-06
-1.03851e-06
3.1123e-06
-6.28254e-07
2.65998e-06
-2.99703e-07
2.07028e-06
-8.10999e-08
1.34345e-06
4.86384e-07
-7.16816e-08
-4.04436e-07
-2.65321e-07
-1.10404e-06
-5.58001e-07
-1.68981e-06
-9.26791e-07
-2.16187e-06
-1.34994e-06
-2.52429e-06
-1.80773e-06
-2.78418e-06
-2.283e-06
-2.95092e-06
-2.76142e-06
-3.03542e-06
-3.23151e-06
-3.04928e-06
-3.68443e-06
-3.00414e-06
-4.11375e-06
-2.91114e-06
-4.51505e-06
-2.78053e-06
-4.8856e-06
-2.62143e-06
-5.22398e-06
-2.4417e-06
-5.52976e-06
-2.24789e-06
-5.80327e-06
-2.04529e-06
-6.04529e-06
-1.838e-06
-6.25693e-06
-1.62905e-06
-6.43942e-06
-1.42052e-06
-6.59401e-06
-1.21365e-06
-6.72188e-06
-1.00899e-06
-6.82406e-06
-8.06539e-07
-6.90138e-06
-6.0582e-07
-6.95441e-06
-4.06013e-07
-6.98346e-06
-2.06053e-07
-6.98852e-06
-4.72699e-09
-6.9693e-06
1.99228e-07
-6.92517e-06
4.07026e-07
-6.8552e-06
6.19728e-07
-6.75818e-06
8.38126e-07
-6.63262e-06
1.06262e-06
-6.4768e-06
1.2931e-06
-6.28887e-06
1.52874e-06
-6.06692e-06
1.76792e-06
-5.80915e-06
2.00798e-06
-5.51402e-06
2.2451e-06
-5.18049e-06
2.47414e-06
-4.80838e-06
2.6885e-06
-4.39864e-06
2.88005e-06
-3.95385e-06
3.03917e-06
-3.47863e-06
3.15489e-06
-2.98008e-06
3.21515e-06
-2.46827e-06
3.20725e-06
-1.95646e-06
3.11857e-06
-1.46127e-06
2.93731e-06
-1.00247e-06
2.65351e-06
-6.02513e-07
2.26003e-06
-2.85655e-07
1.75343e-06
-7.6796e-08
1.13459e-06
4.09588e-07
-6.98113e-08
-3.34624e-07
-2.59261e-07
-9.14595e-07
-5.47179e-07
-1.4019e-06
-9.12375e-07
-1.79668e-06
-1.3346e-06
-2.10207e-06
-1.79521e-06
-2.32356e-06
-2.27771e-06
-2.46842e-06
-2.76797e-06
-2.54516e-06
-3.25429e-06
-2.56295e-06
-3.72738e-06
-2.53105e-06
-4.1801e-06
-2.45842e-06
-4.60723e-06
-2.3534e-06
-5.00518e-06
-2.22348e-06
-5.3717e-06
-2.07518e-06
-5.70559e-06
-1.91399e-06
-6.00647e-06
-1.74441e-06
-6.27451e-06
-1.56996e-06
-6.51029e-06
-1.39327e-06
-6.71461e-06
-1.2162e-06
-6.88836e-06
-1.0399e-06
-7.03243e-06
-8.64923e-07
-7.1476e-06
-6.91363e-07
-7.23452e-06
-5.18901e-07
-7.29361e-06
-3.46926e-07
-7.32505e-06
-1.74615e-07
-7.32875e-06
-1.02129e-09
-7.30436e-06
1.74838e-07
-7.25124e-06
3.53903e-07
-7.16848e-06
5.36966e-07
-7.05494e-06
7.24583e-07
-6.90927e-06
9.1696e-07
-6.73002e-06
1.11384e-06
-6.51567e-06
1.31439e-06
-6.26479e-06
1.51703e-06
-5.97618e-06
1.71937e-06
-5.64907e-06
1.91799e-06
-5.28336e-06
2.10843e-06
-4.87989e-06
2.28503e-06
-4.44079e-06
2.44095e-06
-3.96981e-06
2.5682e-06
-3.47271e-06
2.65779e-06
-2.95757e-06
2.70001e-06
-2.43509e-06
2.68478e-06
-1.91876e-06
2.60224e-06
-1.42481e-06
2.44336e-06
-9.72008e-07
2.2007e-06
-5.81104e-07
1.86912e-06
-2.74106e-07
1.44643e-06
-7.32899e-08
9.33773e-07
3.36298e-07
-6.84076e-08
-2.66217e-07
-2.54692e-07
-7.2831e-07
-5.38976e-07
-1.11761e-06
-9.01376e-07
-1.43428e-06
-1.32278e-06
-1.68067e-06
-1.78543e-06
-1.86091e-06
-2.27336e-06
-1.98049e-06
-2.77264e-06
-2.04588e-06
-3.2715e-06
-2.06408e-06
-3.76032e-06
-2.04224e-06
-4.23144e-06
-1.9873e-06
-4.67904e-06
-1.9058e-06
-5.09887e-06
-1.80365e-06
-5.48801e-06
-1.68604e-06
-5.84462e-06
-1.55738e-06
-6.16773e-06
-1.4213e-06
-6.45699e-06
-1.28069e-06
-6.71254e-06
-1.13773e-06
-6.93477e-06
-9.9397e-07
-7.12426e-06
-8.50403e-07
-7.28163e-06
-7.07552e-07
-7.40746e-06
-5.65538e-07
-7.50219e-06
-4.24167e-07
-7.56612e-06
-2.82998e-07
-7.59931e-06
-1.41419e-07
-7.60162e-06
1.28191e-09
-7.57262e-06
1.45844e-07
-7.51168e-06
2.92963e-07
-7.41793e-06
4.43212e-07
-7.29031e-06
5.96962e-07
-7.12764e-06
7.5429e-07
-6.92868e-06
9.1489e-07
-6.69227e-06
1.07797e-06
-6.41739e-06
1.24215e-06
-6.1034e-06
1.40538e-06
-5.7502e-06
1.56479e-06
-5.35847e-06
1.7167e-06
-4.92993e-06
1.85649e-06
-4.46766e-06
1.97867e-06
-3.97633e-06
2.07687e-06
-3.46256e-06
2.14402e-06
-2.93514e-06
2.17259e-06
-2.40521e-06
2.15484e-06
-1.88629e-06
2.08332e-06
-1.39423e-06
1.9513e-06
-9.46899e-07
1.75337e-06
-5.63679e-07
1.4859e-06
-2.64794e-07
1.14754e-06
-7.04828e-08
7.39462e-07
2.65816e-07
-6.73785e-08
-1.98839e-07
-2.51331e-07
-5.44357e-07
-5.32918e-07
-8.36025e-07
-8.93213e-07
-1.07398e-06
-1.31395e-06
-1.25993e-06
-1.77805e-06
-1.39681e-06
-2.26997e-06
-1.48858e-06
-2.77597e-06
-1.53988e-06
-3.28425e-06
-1.5558e-06
-3.78497e-06
-1.54152e-06
-4.27011e-06
-1.50216e-06
-4.73341e-06
-1.4425e-06
-5.17011e-06
-1.36695e-06
-5.57678e-06
-1.27937e-06
-5.95109e-06
-1.18308e-06
-6.29158e-06
-1.08081e-06
-6.59749e-06
-9.74778e-07
-6.86858e-06
-8.66645e-07
-7.10493e-06
-7.5762e-07
-7.30684e-06
-6.48492e-07
-7.47471e-06
-5.39688e-07
-7.60891e-06
-4.31338e-07
-7.70975e-06
-3.23326e-07
-7.77739e-06
-2.15352e-07
-7.81183e-06
-1.06987e-07
-7.81282e-06
2.27672e-09
-7.77994e-06
1.12962e-07
-7.71254e-06
2.25559e-07
-7.60978e-06
3.40458e-07
-7.47071e-06
4.57892e-07
-7.29429e-06
5.77865e-07
-7.07949e-06
7.00088e-07
-6.82541e-06
8.23898e-07
-6.53145e-06
9.48188e-07
-6.1974e-06
1.07133e-06
-5.82373e-06
1.19112e-06
-5.41176e-06
1.30472e-06
-4.96389e-06
1.40863e-06
-4.48394e-06
1.49871e-06
-3.97729e-06
1.57022e-06
-3.4512e-06
1.61794e-06
-2.91494e-06
1.63634e-06
-2.37993e-06
1.61983e-06
-1.85967e-06
1.56306e-06
-1.36964e-06
1.46128e-06
-9.26979e-07
1.31071e-06
-5.49987e-07
1.10891e-06
-2.57529e-07
8.55085e-07
-6.83052e-08
5.50238e-07
1.9751e-07
-6.66581e-08
-1.32181e-07
-2.48973e-07
-3.62042e-07
-5.28656e-07
-5.56343e-07
-8.87449e-07
-7.15189e-07
-1.3077e-06
-8.39681e-07
-1.77279e-06
-9.31721e-07
-2.2675e-06
-9.93862e-07
-2.77827e-06
-1.02912e-06
-3.29328e-06
-1.04079e-06
-3.80254e-06
-1.03226e-06
-4.29781e-06
-1.00689e-06
-4.77249e-06
-9.6782e-07
-5.22148e-06
-9.17963e-07
-5.64096e-06
-8.59884e-07
-6.02824e-06
-7.95795e-07
-6.38152e-06
-7.27534e-07
-6.69972e-06
-6.5658e-07
-6.9823e-06
-5.84068e-07
-7.2291e-06
-5.1082e-07
-7.44021e-06
-4.37382e-07
-7.61584e-06
-3.64058e-07
-7.75623e-06
-2.9095e-07
-7.86155e-06
-2.17998e-07
-7.93189e-06
-1.45017e-07
-7.96714e-06
-7.17325e-08
-7.96704e-06
2.17704e-09
-7.93113e-06
7.7047e-08
-7.85876e-06
1.53186e-07
-7.74913e-06
2.30837e-07
-7.60137e-06
3.10131e-07
-7.41456e-06
3.91048e-07
-7.18783e-06
4.73362e-07
-6.92053e-06
5.56601e-07
-6.61233e-06
6.39989e-07
-6.26341e-06
7.22409e-07
-5.87464e-06
8.02353e-07
-5.44782e-06
8.77902e-07
-4.98589e-06
9.46706e-07
-4.49318e-06
1.006e-06
-3.9756e-06
1.05264e-06
-3.44085e-06
1.08318e-06
-2.89853e-06
1.09402e-06
-2.36021e-06
1.0815e-06
-1.83935e-06
1.0422e-06
-1.35113e-06
9.73059e-07
-9.12128e-07
8.71704e-07
-5.39852e-07
7.36635e-07
-2.5218e-07
5.67412e-07
-6.67086e-08
3.64767e-07
1.30802e-07
-6.62014e-08
-6.59795e-08
-2.47476e-07
-1.80768e-07
-5.25943e-07
-2.77875e-07
-8.83774e-07
-3.57358e-07
-1.3037e-06
-4.19759e-07
-1.76941e-06
-4.66009e-07
-2.26591e-06
-4.97363e-07
-2.77972e-06
-5.15303e-07
-3.29906e-06
-5.21452e-07
-3.81384e-06
-5.17485e-07
-4.31567e-06
-5.05055e-07
-4.79776e-06
-4.85733e-07
-5.25476e-06
-4.60959e-07
-5.68263e-06
-4.32014e-07
-6.07842e-06
-4.00003e-07
-6.44011e-06
-3.6585e-07
-6.76639e-06
-3.30296e-07
-7.05654e-06
-2.93915e-07
-7.31024e-06
-2.57124e-07
-7.52742e-06
-2.202e-07
-7.70818e-06
-1.83302e-07
-7.85264e-06
-1.46487e-07
-7.96091e-06
-1.09728e-07
-8.03299e-06
-7.29375e-08
-8.06874e-06
-3.59831e-08
-8.06785e-06
1.29211e-09
-8.02986e-06
3.90511e-08
-7.95411e-06
7.74432e-08
-7.83986e-06
1.16584e-07
-7.68626e-06
1.56531e-07
-7.49248e-06
1.97268e-07
-7.25779e-06
2.38673e-07
-6.98169e-06
2.80498e-07
-6.66405e-06
3.22347e-07
-6.30529e-06