/*--------------------------------*- C++ -*----------------------------------*\
  =========                 |
  \\      /  F ield         | OpenFOAM: The Open Source CFD Toolbox
   \\    /   O peration     | Website:  https://openfoam.org
    \\  /    A nd           | Version:  7
     \\/     M anipulation  |
\*---------------------------------------------------------------------------*/
FoamFile
{
    version     2.0;
    format      ascii;
    class       volScalarField;
    location    "0.0546";
    object      p;
}
// * * * * * * * * * * * * * * * * * * * * * * * * * * * * * * * * * * * * * //

dimensions      [0 2 -2 0 0 0 0];

internalField   nonuniform List<scalar> 
2500
(
-4.05952e-06
-6.51207
-9.29742
-10.4935
-11.1592
-11.5658
-11.8297
-12.0147
-12.1526
-12.2599
-12.3459
-12.4161
-12.4744
-12.5234
-12.5647
-12.5998
-12.6298
-12.6553
-12.677
-12.6955
-12.7112
-12.7245
-12.7358
-12.7454
-12.7536
-12.7607
-12.767
-12.773
-12.7788
-12.7849
-12.7917
-12.7996
-12.8091
-12.8209
-12.8355
-12.8537
-12.8767
-12.9057
-12.9424
-12.9892
-13.0495
-13.1287
-13.2353
-13.3849
-13.6084
-13.9668
-14.567
-15.6681
-18.3354
-24.7202
-4.95541
-7.67549
-9.18243
-10.1428
-10.8109
-11.2712
-11.5931
-11.8267
-12.0024
-12.1385
-12.2464
-12.3339
-12.4059
-12.4659
-12.5164
-12.5593
-12.5959
-12.6272
-12.6542
-12.6774
-12.6975
-12.715
-12.7302
-12.7436
-12.7556
-12.7665
-12.7766
-12.7865
-12.7964
-12.8068
-12.8182
-12.8311
-12.8461
-12.8639
-12.8855
-12.9119
-12.9444
-12.9848
-13.0356
-13.1001
-13.183
-13.2917
-13.4371
-13.6367
-13.9196
-14.3336
-14.9438
-15.8322
-17.2523
-19.8513
-7.92469
-8.7573
-9.55848
-10.2397
-10.7802
-11.1906
-11.5006
-11.7377
-11.9221
-12.068
-12.1855
-12.2814
-12.3608
-12.4274
-12.4836
-12.5315
-12.5726
-12.608
-12.6387
-12.6653
-12.6886
-12.7091
-12.7273
-12.7435
-12.7583
-12.772
-12.785
-12.7977
-12.8106
-12.8242
-12.8389
-12.8553
-12.8742
-12.8963
-12.9226
-12.9542
-12.9927
-13.04
-13.0986
-13.1721
-13.2652
-13.3847
-13.5401
-13.7451
-14.0191
-14.3882
-14.8809
-15.5091
-16.2548
-17.0181
-9.43393
-9.64753
-10.0668
-10.5121
-10.9054
-11.2328
-11.4997
-11.7158
-11.8911
-12.0343
-12.1523
-12.2504
-12.3327
-12.4023
-12.4617
-12.5126
-12.5566
-12.5948
-12.6281
-12.6572
-12.683
-12.7058
-12.7262
-12.7447
-12.7616
-12.7775
-12.7928
-12.8078
-12.823
-12.8389
-12.8561
-12.8752
-12.8969
-12.9219
-12.9512
-12.9862
-13.0281
-13.0789
-13.141
-13.2173
-13.3119
-13.43
-13.5783
-13.7651
-14.0002
-14.2928
-14.6485
-15.0547
-15.437
-15.6148
-10.3192
-10.319
-10.5232
-10.8003
-11.0752
-11.3257
-11.5447
-11.732
-11.8906
-12.0245
-12.1378
-12.234
-12.3161
-12.3865
-12.4471
-12.4997
-12.5455
-12.5855
-12.6207
-12.6518
-12.6794
-12.704
-12.7263
-12.7466
-12.7654
-12.7832
-12.8002
-12.8171
-12.8342
-12.8521
-12.8712
-12.8923
-12.9159
-12.943
-12.9744
-13.0112
-13.0548
-13.1069
-13.1694
-13.2447
-13.3359
-13.4464
-13.5803
-13.7415
-13.933
-14.1548
-14.4007
-14.6499
-14.8297
-14.8113
-10.8856
-10.8117
-10.9008
-11.0686
-11.2568
-11.4434
-11.6178
-11.7748
-11.9134
-12.0344
-12.1396
-12.2309
-12.3103
-12.3794
-12.4397
-12.4926
-12.5391
-12.5801
-12.6164
-12.6487
-12.6777
-12.7037
-12.7274
-12.7491
-12.7693
-12.7885
-12.807
-12.8253
-12.8438
-12.8631
-12.8836
-12.906
-12.931
-12.9592
-12.9915
-13.029
-13.0727
-13.1241
-13.1847
-13.2562
-13.3407
-13.4401
-13.5563
-13.6904
-13.8414
-14.0049
-14.1709
-14.3187
-14.3924
-14.3108
-11.2675
-11.1769
-11.2075
-11.3068
-11.4336
-11.5703
-11.706
-11.8348
-11.9527
-12.0592
-12.1544
-12.2389
-12.3138
-12.3801
-12.4388
-12.4908
-12.537
-12.5781
-12.6149
-12.6478
-12.6775
-12.7044
-12.729
-12.7517
-12.773
-12.7931
-12.8126
-12.8319
-12.8514
-12.8716
-12.893
-12.9162
-12.9417
-12.9702
-13.0026
-13.0396
-13.0822
-13.1315
-13.1885
-13.2544
-13.3304
-13.4172
-13.5153
-13.6239
-13.7402
-13.8583
-13.9682
-14.0535
-14.0747
-13.9823
-11.5405
-11.4537
-11.4552
-11.5122
-11.5966
-11.6955
-11.8
-11.9035
-12.0023
-12.0944
-12.1788
-12.2556
-12.3249
-12.3872
-12.4432
-12.4935
-12.5386
-12.5791
-12.6157
-12.6487
-12.6786
-12.7059
-12.731
-12.7543
-12.7761
-12.7969
-12.8171
-12.8369
-12.857
-12.8777
-12.8994
-12.9228
-12.9483
-12.9765
-13.0082
-13.0439
-13.0844
-13.1305
-13.1829
-13.2423
-13.3091
-13.3835
-13.4647
-13.5511
-13.6394
-13.7236
-13.7953
-13.8425
-13.8387
-13.7534
-11.7462
-11.6688
-11.6562
-11.6871
-11.7426
-11.8137
-11.8933
-11.9758
-12.0575
-12.136
-12.2098
-12.2784
-12.3416
-12.3993
-12.4519
-12.4997
-12.5431
-12.5825
-12.6183
-12.6509
-12.6806
-12.7079
-12.7331
-12.7565
-12.7786
-12.7997
-12.8201
-12.8402
-12.8604
-12.8811
-12.9028
-12.9259
-12.9509
-12.9784
-13.0087
-13.0425
-13.0804
-13.1228
-13.1702
-13.2228
-13.2806
-13.3433
-13.4096
-13.4777
-13.544
-13.6036
-13.6496
-13.674
-13.6589
-13.585
-11.9075
-11.84
-11.8208
-11.8357
-11.8716
-11.9223
-11.9827
-12.048
-12.115
-12.1812
-12.245
-12.3056
-12.3624
-12.4152
-12.464
-12.5089
-12.55
-12.5878
-12.6223
-12.654
-12.6832
-12.71
-12.735
-12.7583
-12.7803
-12.8012
-12.8216
-12.8416
-12.8617
-12.8821
-12.9034
-12.9259
-12.95
-12.9762
-13.0049
-13.0365
-13.0714
-13.1098
-13.152
-13.1981
-13.2475
-13.2998
-13.3536
-13.4068
-13.4564
-13.4982
-13.5272
-13.538
-13.5184
-13.4557
-12.038
-11.9792
-11.9575
-11.9625
-11.985
-12.021
-12.0665
-12.1179
-12.1724
-12.2278
-12.2826
-12.3355
-12.3861
-12.4338
-12.4785
-12.5202
-12.5588
-12.5945
-12.6275
-12.6579
-12.6861
-12.7122
-12.7366
-12.7594
-12.781
-12.8016
-12.8216
-12.8413
-12.8609
-12.8808
-12.9014
-12.923
-12.946
-12.9706
-12.9974
-13.0265
-13.0582
-13.0927
-13.13
-13.1699
-13.2119
-13.2552
-13.2985
-13.34
-13.3769
-13.4061
-13.4239
-13.4266
-13.406
-13.353
-12.1458
-12.0945
-12.0723
-12.0712
-12.0846
-12.1098
-12.144
-12.1843
-12.2285
-12.2745
-12.3211
-12.367
-12.4116
-12.4543
-12.4949
-12.5331
-12.5689
-12.6023
-12.6334
-12.6623
-12.6893
-12.7144
-12.7378
-12.7599
-12.7809
-12.8009
-12.8203
-12.8393
-12.8582
-12.8773
-12.897
-12.9175
-12.9391
-12.9621
-12.9868
-13.0134
-13.042
-13.0727
-13.1053
-13.1397
-13.1751
-13.2109
-13.2457
-13.2779
-13.3055
-13.3257
-13.3361
-13.3342
-13.3142
-13.2694
-12.2365
-12.1915
-12.1698
-12.1651
-12.1723
-12.1897
-12.2151
-12.2466
-12.2822
-12.3203
-12.3596
-12.3992
-12.4381
-12.476
-12.5124
-12.5471
-12.58
-12.6109
-12.6399
-12.6671
-12.6925
-12.7164
-12.7387
-12.7598
-12.7799
-12.7991
-12.8176
-12.8358
-12.8539
-12.8721
-12.8906
-12.9099
-12.93
-12.9512
-12.9738
-12.9979
-13.0235
-13.0506
-13.079
-13.1084
-13.1382
-13.1677
-13.1957
-13.2208
-13.2413
-13.2552
-13.2607
-13.2564
-13.2378
-13.1998
-12.3139
-12.2743
-12.2536
-12.2468
-12.2498
-12.2614
-12.2803
-12.3047
-12.3333
-12.3646
-12.3976
-12.4313
-12.4651
-12.4984
-12.5308
-12.562
-12.5918
-12.6201
-12.6469
-12.6721
-12.6959
-12.7182
-12.7393
-12.7592
-12.7782
-12.7964
-12.8139
-12.8311
-12.8481
-12.8652
-12.8825
-12.9004
-12.919
-12.9384
-12.9589
-12.9805
-13.0033
-13.0271
-13.0517
-13.0768
-13.1019
-13.1262
-13.1487
-13.1682
-13.1835
-13.193
-13.1955
-13.1899
-13.173
-13.1408
-12.3807
-12.3457
-12.3264
-12.3184
-12.3185
-12.326
-12.3398
-12.3586
-12.3814
-12.407
-12.4345
-12.4631
-12.4921
-12.5211
-12.5497
-12.5774
-12.6042
-12.6298
-12.6542
-12.6774
-12.6993
-12.72
-12.7396
-12.7582
-12.7759
-12.7929
-12.8093
-12.8254
-12.8412
-12.8571
-12.8731
-12.8895
-12.9065
-12.9241
-12.9425
-12.9618
-12.9819
-13.0027
-13.024
-13.0454
-13.0665
-13.0865
-13.1046
-13.12
-13.1314
-13.1378
-13.1384
-13.1324
-13.1173
-13.09
-12.4389
-12.408
-12.3901
-12.3817
-12.3799
-12.3843
-12.3942
-12.4086
-12.4266
-12.4474
-12.4701
-12.4942
-12.5189
-12.5439
-12.5688
-12.5932
-12.617
-12.6399
-12.6619
-12.6829
-12.7029
-12.7218
-12.7398
-12.7569
-12.7733
-12.7889
-12.8041
-12.8189
-12.8334
-12.848
-12.8626
-12.8775
-12.8928
-12.9087
-12.9252
-12.9422
-12.9599
-12.978
-12.9963
-13.0145
-13.0322
-13.0487
-13.0634
-13.0755
-13.0841
-13.0884
-13.0878
-13.0819
-13.0688
-13.0457
-12.49
-12.4627
-12.4465
-12.438
-12.435
-12.4372
-12.4442
-12.455
-12.4691
-12.4858
-12.5044
-12.5244
-12.5453
-12.5666
-12.588
-12.6092
-12.6301
-12.6503
-12.6699
-12.6886
-12.7066
-12.7237
-12.74
-12.7555
-12.7704
-12.7846
-12.7984
-12.8118
-12.825
-12.8381
-12.8513
-12.8647
-12.8784
-12.8925
-12.9071
-12.9221
-12.9375
-12.9531
-12.9689
-12.9843
-12.9991
-13.0128
-13.0247
-13.0343
-13.0408
-13.0437
-13.0426
-13.0371
-13.0258
-13.0065
-12.5353
-12.5114
-12.4967
-12.4885
-12.4848
-12.4855
-12.4901
-12.4982
-12.5091
-12.5223
-12.5374
-12.5538
-12.5711
-12.589
-12.6072
-12.6254
-12.6434
-12.6611
-12.6782
-12.6947
-12.7106
-12.7257
-12.7403
-12.7541
-12.7674
-12.7801
-12.7924
-12.8044
-12.8162
-12.8279
-12.8396
-12.8514
-12.8635
-12.8759
-12.8886
-12.9016
-12.9149
-12.9284
-12.9418
-12.9549
-12.9672
-12.9785
-12.9883
-12.9959
-13.001
-13.003
-13.0016
-12.9968
-12.9873
-12.9714
-12.5758
-12.555
-12.5419
-12.5342
-12.5302
-12.5298
-12.5327
-12.5385
-12.5467
-12.557
-12.569
-12.5822
-12.5964
-12.6112
-12.6264
-12.6418
-12.657
-12.6721
-12.6868
-12.7011
-12.7149
-12.7281
-12.7408
-12.7529
-12.7645
-12.7757
-12.7864
-12.7969
-12.8072
-12.8174
-12.8276
-12.8378
-12.8483
-12.859
-12.8699
-12.8811
-12.8924
-12.9038
-12.9152
-12.9261
-12.9365
-12.9458
-12.9537
-12.9599
-12.9639
-12.9654
-12.9641
-12.9601
-12.9523
-12.9395
-12.6124
-12.5944
-12.5829
-12.5758
-12.5718
-12.5707
-12.5723
-12.5763
-12.5823
-12.5902
-12.5994
-12.6099
-12.6212
-12.6332
-12.6456
-12.6582
-12.6709
-12.6834
-12.6958
-12.7079
-12.7196
-12.7308
-12.7416
-12.752
-12.7619
-12.7714
-12.7806
-12.7895
-12.7983
-12.8069
-12.8155
-12.8242
-12.833
-12.842
-12.8512
-12.8605
-12.8701
-12.8796
-12.889
-12.8981
-12.9067
-12.9143
-12.9208
-12.9258
-12.9291
-12.9303
-12.9293
-12.9261
-12.92
-12.9101
-12.6457
-12.6304
-12.6205
-12.6142
-12.6103
-12.6087
-12.6093
-12.6119
-12.6161
-12.6219
-12.6288
-12.6367
-12.6455
-12.6549
-12.6647
-12.6747
-12.6849
-12.6951
-12.7052
-12.7151
-12.7247
-12.734
-12.7429
-12.7515
-12.7596
-12.7675
-12.775
-12.7824
-12.7895
-12.7965
-12.8035
-12.8106
-12.8178
-12.8251
-12.8325
-12.8401
-12.8479
-12.8557
-12.8633
-12.8708
-12.8777
-12.8839
-12.8892
-12.8933
-12.896
-12.8971
-12.8965
-12.8942
-12.8899
-12.8826
-12.6763
-12.6637
-12.6553
-12.6498
-12.6462
-12.6444
-12.6443
-12.6457
-12.6484
-12.6523
-12.6572
-12.6629
-12.6694
-12.6763
-12.6837
-12.6914
-12.6993
-12.7072
-12.7151
-12.7228
-12.7304
-12.7377
-12.7447
-12.7515
-12.7579
-12.764
-12.7699
-12.7756
-12.7811
-12.7865
-12.7918
-12.7972
-12.8027
-12.8083
-12.814
-12.8199
-12.826
-12.832
-12.838
-12.8439
-12.8494
-12.8543
-12.8586
-12.8619
-12.8642
-12.8653
-12.8652
-12.8639
-12.8612
-12.8566
-12.7048
-12.6947
-12.6879
-12.6833
-12.6801
-12.6782
-12.6776
-12.678
-12.6795
-12.6818
-12.6849
-12.6886
-12.6929
-12.6977
-12.7028
-12.7083
-12.7139
-12.7196
-12.7254
-12.7311
-12.7366
-12.742
-12.7472
-12.7521
-12.7567
-12.7611
-12.7653
-12.7693
-12.7731
-12.7768
-12.7805
-12.7842
-12.7879
-12.7918
-12.7958
-12.8
-12.8042
-12.8086
-12.813
-12.8174
-12.8215
-12.8253
-12.8286
-12.8313
-12.8333
-12.8345
-12.835
-12.8347
-12.8336
-12.8314
-12.7316
-12.724
-12.7188
-12.7152
-12.7124
-12.7106
-12.7096
-12.7092
-12.7096
-12.7105
-12.7119
-12.7138
-12.7162
-12.7189
-12.722
-12.7253
-12.7288
-12.7325
-12.7362
-12.7399
-12.7435
-12.7469
-12.7502
-12.7533
-12.7562
-12.7589
-12.7613
-12.7635
-12.7656
-12.7676
-12.7695
-12.7715
-12.7735
-12.7756
-12.7778
-12.7802
-12.7827
-12.7854
-12.7882
-12.7911
-12.7939
-12.7965
-12.799
-12.8011
-12.8029
-12.8043
-12.8053
-12.806
-12.8065
-12.8068
-12.7573
-12.7521
-12.7485
-12.7458
-12.7436
-12.7419
-12.7406
-12.7396
-12.7389
-12.7386
-12.7385
-12.7388
-12.7393
-12.7401
-12.7412
-12.7426
-12.7441
-12.7457
-12.7475
-12.7492
-12.7509
-12.7525
-12.754
-12.7553
-12.7564
-12.7573
-12.7579
-12.7584
-12.7588
-12.759
-12.7591
-12.7592
-12.7594
-12.7597
-12.76
-12.7606
-12.7614
-12.7624
-12.7635
-12.7648
-12.7663
-12.7678
-12.7694
-12.771
-12.7725
-12.7741
-12.7757
-12.7774
-12.7795
-12.7822
-12.7822
-12.7795
-12.7774
-12.7757
-12.7741
-12.7725
-12.771
-12.7694
-12.7678
-12.7663
-12.7648
-12.7635
-12.7624
-12.7614
-12.7606
-12.7601
-12.7597
-12.7594
-12.7592
-12.7591
-12.759
-12.7588
-12.7584
-12.7579
-12.7573
-12.7564
-12.7553
-12.754
-12.7525
-12.7509
-12.7492
-12.7475
-12.7457
-12.7441
-12.7426
-12.7412
-12.7401
-12.7393
-12.7388
-12.7385
-12.7386
-12.7389
-12.7396
-12.7406
-12.7419
-12.7436
-12.7458
-12.7485
-12.7521
-12.7573
-12.8068
-12.8065
-12.806
-12.8053
-12.8043
-12.8029
-12.8011
-12.799
-12.7965
-12.7939
-12.7911
-12.7882
-12.7854
-12.7827
-12.7802
-12.7778
-12.7756
-12.7735
-12.7715
-12.7695
-12.7676
-12.7656
-12.7635
-12.7613
-12.7589
-12.7562
-12.7533
-12.7502
-12.7469
-12.7435
-12.7399
-12.7362
-12.7325
-12.7288
-12.7253
-12.722
-12.7189
-12.7162
-12.7138
-12.7119
-12.7105
-12.7096
-12.7092
-12.7096
-12.7106
-12.7124
-12.7152
-12.7188
-12.724
-12.7316
-12.8314
-12.8336
-12.8347
-12.835
-12.8345
-12.8333
-12.8313
-12.8286
-12.8253
-12.8215
-12.8174
-12.813
-12.8086
-12.8043
-12.8
-12.7958
-12.7918
-12.7879
-12.7842
-12.7805
-12.7768
-12.7731
-12.7693
-12.7653
-12.7611
-12.7567
-12.7521
-12.7472
-12.742
-12.7366
-12.7311
-12.7254
-12.7196
-12.7139
-12.7083
-12.7028
-12.6977
-12.6929
-12.6886
-12.6849
-12.6818
-12.6795
-12.678
-12.6776
-12.6782
-12.6801
-12.6833
-12.6879
-12.6947
-12.7048
-12.8566
-12.8612
-12.864
-12.8652
-12.8653
-12.8642
-12.8619
-12.8586
-12.8543
-12.8494
-12.8439
-12.838
-12.832
-12.826
-12.8199
-12.814
-12.8083
-12.8027
-12.7972
-12.7918
-12.7865
-12.7811
-12.7756
-12.7699
-12.764
-12.7579
-12.7515
-12.7447
-12.7377
-12.7304
-12.7228
-12.7151
-12.7072
-12.6993
-12.6914
-12.6837
-12.6763
-12.6694
-12.6629
-12.6572
-12.6523
-12.6484
-12.6457
-12.6443
-12.6444
-12.6462
-12.6498
-12.6553
-12.6637
-12.6763
-12.8826
-12.8899
-12.8942
-12.8965
-12.8971
-12.896
-12.8933
-12.8892
-12.8839
-12.8777
-12.8708
-12.8633
-12.8557
-12.8479
-12.8401
-12.8325
-12.8251
-12.8178
-12.8106
-12.8035
-12.7965
-12.7895
-12.7824
-12.775
-12.7675
-12.7596
-12.7515
-12.7429
-12.734
-12.7247
-12.7151
-12.7052
-12.6951
-12.6849
-12.6747
-12.6647
-12.6549
-12.6455
-12.6367
-12.6288
-12.6218
-12.6161
-12.6119
-12.6093
-12.6087
-12.6103
-12.6142
-12.6205
-12.6304
-12.6457
-12.9101
-12.92
-12.9261
-12.9293
-12.9303
-12.9291
-12.9259
-12.9208
-12.9143
-12.9067
-12.8981
-12.889
-12.8796
-12.8701
-12.8605
-12.8512
-12.842
-12.833
-12.8242
-12.8155
-12.8069
-12.7983
-12.7895
-12.7806
-12.7714
-12.7619
-12.752
-12.7416
-12.7308
-12.7196
-12.7079
-12.6958
-12.6834
-12.6709
-12.6582
-12.6456
-12.6332
-12.6212
-12.6099
-12.5994
-12.5902
-12.5823
-12.5762
-12.5722
-12.5707
-12.5718
-12.5758
-12.5829
-12.5944
-12.6124
-12.9395
-12.9523
-12.9601
-12.9641
-12.9654
-12.9639
-12.9599
-12.9537
-12.9458
-12.9365
-12.9261
-12.9152
-12.9039
-12.8924
-12.8811
-12.8699
-12.859
-12.8483
-12.8378
-12.8276
-12.8174
-12.8072
-12.7969
-12.7864
-12.7757
-12.7645
-12.7529
-12.7408
-12.7281
-12.7149
-12.7011
-12.6868
-12.6721
-12.657
-12.6417
-12.6264
-12.6112
-12.5964
-12.5822
-12.569
-12.557
-12.5467
-12.5385
-12.5327
-12.5298
-12.5302
-12.5342
-12.5419
-12.555
-12.5758
-12.9714
-12.9873
-12.9968
-13.0016
-13.003
-13.001
-12.9959
-12.9883
-12.9785
-12.9672
-12.9549
-12.9418
-12.9284
-12.9149
-12.9016
-12.8886
-12.8759
-12.8635
-12.8514
-12.8396
-12.8279
-12.8162
-12.8044
-12.7924
-12.7801
-12.7674
-12.7541
-12.7403
-12.7257
-12.7106
-12.6947
-12.6782
-12.6611
-12.6434
-12.6254
-12.6072
-12.589
-12.5711
-12.5538
-12.5374
-12.5223
-12.5091
-12.4982
-12.4901
-12.4855
-12.4848
-12.4885
-12.4967
-12.5114
-12.5353
-13.0065
-13.0258
-13.0371
-13.0426
-13.0437
-13.0408
-13.0343
-13.0247
-13.0128
-12.9991
-12.9843
-12.9689
-12.9531
-12.9375
-12.9221
-12.9071
-12.8925
-12.8784
-12.8647
-12.8513
-12.8381
-12.825
-12.8118
-12.7984
-12.7846
-12.7703
-12.7555
-12.74
-12.7237
-12.7066
-12.6886
-12.6699
-12.6503
-12.6301
-12.6092
-12.588
-12.5666
-12.5453
-12.5244
-12.5044
-12.4858
-12.4691
-12.455
-12.4441
-12.4372
-12.435
-12.438
-12.4465
-12.4627
-12.49
-13.0457
-13.0688
-13.0819
-13.0878
-13.0884
-13.0841
-13.0755
-13.0634
-13.0487
-13.0322
-13.0145
-12.9963
-12.978
-12.9599
-12.9422
-12.9252
-12.9087
-12.8928
-12.8775
-12.8626
-12.848
-12.8334
-12.8189
-12.8041
-12.7889
-12.7733
-12.7569
-12.7398
-12.7218
-12.7029
-12.6829
-12.6619
-12.6399
-12.617
-12.5932
-12.5688
-12.5439
-12.5189
-12.4941
-12.4701
-12.4474
-12.4266
-12.4086
-12.3942
-12.3843
-12.3799
-12.3817
-12.3901
-12.4079
-12.4388
-13.09
-13.1173
-13.1324
-13.1384
-13.1378
-13.1314
-13.12
-13.1046
-13.0865
-13.0665
-13.0454
-13.024
-13.0027
-12.9819
-12.9618
-12.9425
-12.9241
-12.9065
-12.8895
-12.8731
-12.8571
-12.8412
-12.8254
-12.8093
-12.7929
-12.7759
-12.7582
-12.7396
-12.72
-12.6993
-12.6774
-12.6542
-12.6298
-12.6042
-12.5774
-12.5497
-12.5211
-12.4921
-12.4631
-12.4345
-12.407
-12.3814
-12.3586
-12.3398
-12.326
-12.3185
-12.3184
-12.3264
-12.3457
-12.3807
-13.1408
-13.173
-13.1899
-13.1955
-13.193
-13.1835
-13.1682
-13.1487
-13.1262
-13.1019
-13.0768
-13.0517
-13.0271
-13.0033
-12.9805
-12.9589
-12.9384
-12.919
-12.9004
-12.8825
-12.8652
-12.8481
-12.8311
-12.8139
-12.7964
-12.7782
-12.7592
-12.7393
-12.7182
-12.6959
-12.6721
-12.6469
-12.6201
-12.5918
-12.562
-12.5308
-12.4984
-12.4651
-12.4313
-12.3976
-12.3646
-12.3332
-12.3047
-12.2802
-12.2614
-12.2498
-12.2468
-12.2536
-12.2743
-12.3139
-13.1998
-13.2378
-13.2564
-13.2607
-13.2552
-13.2413
-13.2208
-13.1957
-13.1677
-13.1382
-13.1084
-13.079
-13.0506
-13.0235
-12.9979
-12.9738
-12.9512
-12.93
-12.9099
-12.8906
-12.8721
-12.8539
-12.8358
-12.8176
-12.7991
-12.7799
-12.7598
-12.7387
-12.7164
-12.6925
-12.6671
-12.6399
-12.6109
-12.58
-12.5471
-12.5124
-12.476
-12.4381
-12.3992
-12.3596
-12.3203
-12.2822
-12.2466
-12.2151
-12.1896
-12.1723
-12.1651
-12.1698
-12.1915
-12.2365
-13.2694
-13.3142
-13.3342
-13.3361
-13.3257
-13.3055
-13.2779
-13.2457
-13.2109
-13.1751
-13.1397
-13.1053
-13.0727
-13.042
-13.0134
-12.9868
-12.9621
-12.9391
-12.9175
-12.897
-12.8773
-12.8582
-12.8393
-12.8203
-12.8009
-12.7809
-12.7599
-12.7378
-12.7144
-12.6893
-12.6623
-12.6334
-12.6023
-12.5689
-12.5331
-12.4949
-12.4543
-12.4116
-12.367
-12.3211
-12.2745
-12.2285
-12.1843
-12.144
-12.1098
-12.0846
-12.0712
-12.0722
-12.0945
-12.1458
-13.353
-13.406
-13.4266
-13.4239
-13.4061
-13.3769
-13.34
-13.2985
-13.2552
-13.2119
-13.1699
-13.13
-13.0927
-13.0582
-13.0265
-12.9974
-12.9706
-12.946
-12.923
-12.9014
-12.8808
-12.8609
-12.8413
-12.8216
-12.8016
-12.781
-12.7594
-12.7366
-12.7122
-12.6861
-12.6579
-12.6274
-12.5945
-12.5588
-12.5201
-12.4785
-12.4338
-12.3861
-12.3355
-12.2825
-12.2278
-12.1724
-12.1179
-12.0665
-12.0209
-11.985
-11.9625
-11.9575
-11.9792
-12.038
-13.4557
-13.5184
-13.538
-13.5272
-13.4982
-13.4564
-13.4068
-13.3536
-13.2998
-13.2475
-13.1981
-13.152
-13.1098
-13.0714
-13.0365
-13.0049
-12.9762
-12.95
-12.9259
-12.9034
-12.8821
-12.8616
-12.8416
-12.8216
-12.8012
-12.7803
-12.7583
-12.735
-12.71
-12.6832
-12.654
-12.6223
-12.5878
-12.55
-12.5088
-12.464
-12.4152
-12.3624
-12.3056
-12.245
-12.1811
-12.115
-12.048
-11.9827
-11.9223
-11.8716
-11.8357
-11.8208
-11.84
-11.9075
-13.585
-13.6589
-13.674
-13.6496
-13.6036
-13.544
-13.4777
-13.4096
-13.3433
-13.2806
-13.2228
-13.1702
-13.1228
-13.0804
-13.0425
-13.0087
-12.9784
-12.9509
-12.9259
-12.9028
-12.8811
-12.8604
-12.8402
-12.8201
-12.7997
-12.7786
-12.7565
-12.7331
-12.7079
-12.6806
-12.6508
-12.6183
-12.5825
-12.5431
-12.4997
-12.4519
-12.3993
-12.3416
-12.2784
-12.2098
-12.136
-12.0575
-11.9758
-11.8933
-11.8137
-11.7426
-11.6871
-11.6561
-11.6688
-11.7461
-13.7534
-13.8387
-13.8425
-13.7953
-13.7236
-13.6394
-13.5511
-13.4647
-13.3835
-13.3091
-13.2423
-13.1829
-13.1305
-13.0844
-13.0439
-13.0081
-12.9765
-12.9483
-12.9228
-12.8994
-12.8777
-12.857
-12.8369
-12.8171
-12.7969
-12.7761
-12.7543
-12.731
-12.7059
-12.6786
-12.6487
-12.6157
-12.5791
-12.5386
-12.4934
-12.4432
-12.3872
-12.3248
-12.2555
-12.1788
-12.0943
-12.0023
-11.9035
-11.8
-11.6955
-11.5966
-11.5122
-11.4552
-11.4537
-11.5405
-13.9823
-14.0747
-14.0535
-13.9682
-13.8583
-13.7402
-13.6239
-13.5153
-13.4172
-13.3304
-13.2544
-13.1885
-13.1315
-13.0822
-13.0396
-13.0026
-12.9702
-12.9417
-12.9162
-12.893
-12.8716
-12.8514
-12.8319
-12.8126
-12.7931
-12.773
-12.7517
-12.729
-12.7044
-12.6775
-12.6478
-12.6149
-12.5781
-12.537
-12.4908
-12.4388
-12.3801
-12.3138
-12.2389
-12.1544
-12.0592
-11.9527
-11.8347
-11.706
-11.5702
-11.4336
-11.3068
-11.2075
-11.1769
-11.2675
-14.3108
-14.3924
-14.3187
-14.1709
-14.0049
-13.8414
-13.6904
-13.5563
-13.4401
-13.3407
-13.2562
-13.1847
-13.1241
-13.0727
-13.029
-12.9915
-12.9592
-12.931
-12.906
-12.8836
-12.8631
-12.8438
-12.8253
-12.807
-12.7885
-12.7693
-12.7491
-12.7273
-12.7037
-12.6776
-12.6487
-12.6164
-12.5801
-12.5391
-12.4926
-12.4397
-12.3794
-12.3103
-12.2309
-12.1396
-12.0344
-11.9134
-11.7748
-11.6178
-11.4434
-11.2567
-11.0686
-10.9008
-10.8117
-10.8856
-14.8113
-14.8297
-14.6499
-14.4007
-14.1548
-13.933
-13.7415
-13.5803
-13.4464
-13.3359
-13.2447
-13.1694
-13.1069
-13.0548
-13.0112
-12.9744
-12.943
-12.9159
-12.8923
-12.8712
-12.8521
-12.8342
-12.8171
-12.8002
-12.7831
-12.7654
-12.7466
-12.7263
-12.704
-12.6794
-12.6518
-12.6207
-12.5855
-12.5455
-12.4997
-12.4471
-12.3865
-12.3161
-12.234
-12.1378
-12.0245
-11.8906
-11.732
-11.5447
-11.3257
-11.0752
-10.8002
-10.5231
-10.319
-10.3192
-15.6148
-15.437
-15.0547
-14.6485
-14.2928
-14.0002
-13.7651
-13.5783
-13.43
-13.3119
-13.2173
-13.141
-13.0789
-13.0281
-12.9862
-12.9512
-12.9219
-12.8968
-12.8752
-12.8561
-12.8389
-12.823
-12.8078
-12.7928
-12.7775
-12.7616
-12.7447
-12.7262
-12.7058
-12.6829
-12.6572
-12.6281
-12.5948
-12.5566
-12.5126
-12.4617
-12.4023
-12.3326
-12.2503
-12.1523
-12.0343
-11.8911
-11.7158
-11.4997
-11.2328
-10.9053
-10.5121
-10.0668
-9.64751
-9.43391
-17.0181
-16.2548
-15.5091
-14.8809
-14.3882
-14.0191
-13.7451
-13.5401
-13.3847
-13.2652
-13.1721
-13.0986
-13.04
-12.9927
-12.9542
-12.9226
-12.8963
-12.8742
-12.8553
-12.8389
-12.8242
-12.8106
-12.7977
-12.785
-12.772
-12.7583
-12.7435
-12.7272
-12.7091
-12.6886
-12.6653
-12.6387
-12.608
-12.5726
-12.5315
-12.4836
-12.4274
-12.3608
-12.2814
-12.1854
-12.068
-11.9221
-11.7377
-11.5005
-11.1906
-10.7802
-10.2397
-9.55847
-8.75728
-7.92467
-19.8513
-17.2523
-15.8322
-14.9438
-14.3336
-13.9196
-13.6367
-13.4371
-13.2917
-13.183
-13.1001
-13.0356
-12.9848
-12.9444
-12.9119
-12.8855
-12.8639
-12.8461
-12.8311
-12.8182
-12.8068
-12.7964
-12.7865
-12.7766
-12.7664
-12.7556
-12.7436
-12.7302
-12.715
-12.6975
-12.6774
-12.6542
-12.6272
-12.5959
-12.5593
-12.5164
-12.4659
-12.4059
-12.3339
-12.2464
-12.1385
-12.0024
-11.8267
-11.5931
-11.2712
-10.8109
-10.1427
-9.18241
-7.67547
-4.95538
-24.7202
-18.3354
-15.6681
-14.567
-13.9668
-13.6084
-13.3849
-13.2353
-13.1287
-13.0495
-12.9892
-12.9424
-12.9057
-12.8767
-12.8537
-12.8355
-12.8209
-12.8091
-12.7996
-12.7917
-12.7849
-12.7788
-12.773
-12.767
-12.7607
-12.7536
-12.7454
-12.7358
-12.7245
-12.7112
-12.6955
-12.677
-12.6553
-12.6297
-12.5998
-12.5647
-12.5234
-12.4744
-12.4161
-12.3459
-12.2599
-12.1526
-12.0147
-11.8297
-11.5657
-11.1592
-10.4935
-9.29739
-6.51205
2.61697e-05
)
;

boundaryField
{
    movingWallTop
    {
        type            zeroGradient;
    }
    movingWallBottom
    {
        type            zeroGradient;
    }
    fixedWalls
    {
        type            zeroGradient;
    }
    frontAndBack
    {
        type            empty;
    }
}


// ************************************************************************* //
