/*--------------------------------*- C++ -*----------------------------------*\
  =========                 |
  \\      /  F ield         | OpenFOAM: The Open Source CFD Toolbox
   \\    /   O peration     | Website:  https://openfoam.org
    \\  /    A nd           | Version:  7
     \\/     M anipulation  |
\*---------------------------------------------------------------------------*/
FoamFile
{
    version     2.0;
    format      ascii;
    class       volVectorField;
    location    "0.0546";
    object      U;
}
// * * * * * * * * * * * * * * * * * * * * * * * * * * * * * * * * * * * * * //

dimensions      [0 1 -1 0 0 0 0];

internalField   nonuniform List<vector> 
2500
(
(-0.2938 0.153722 0)
(-0.397935 0.12872 0)
(-0.577973 0.0737923 0)
(-0.696265 0.0408752 0)
(-0.765252 0.0233951 0)
(-0.809589 0.0141427 0)
(-0.840181 0.00915812 0)
(-0.862276 0.00635116 0)
(-0.878907 0.00466313 0)
(-0.891858 0.00357413 0)
(-0.902202 0.00282602 0)
(-0.910619 0.00228483 0)
(-0.917561 0.00187672 0)
(-0.923343 0.00155841 0)
(-0.928188 0.00130292 0)
(-0.932258 0.00109259 0)
(-0.935674 0.000915335 0)
(-0.938526 0.000762605 0)
(-0.940883 0.000628161 0)
(-0.942796 0.000507337 0)
(-0.944304 0.00039655 0)
(-0.945434 0.000292981 0)
(-0.946208 0.000194348 0)
(-0.946639 9.87501e-05 0)
(-0.946735 4.53976e-06 0)
(-0.946497 -8.98083e-05 0)
(-0.945924 -0.000185708 0)
(-0.945008 -0.000284605 0)
(-0.943737 -0.000388049 0)
(-0.942094 -0.000497795 0)
(-0.940055 -0.000615927 0)
(-0.937588 -0.000745027 0)
(-0.934654 -0.000888411 0)
(-0.931199 -0.00105046 0)
(-0.927155 -0.00123715 0)
(-0.922433 -0.00145681 0)
(-0.916916 -0.00172146 0)
(-0.910442 -0.00204907 0)
(-0.902793 -0.00246765 0)
(-0.893657 -0.00302317 0)
(-0.882584 -0.00379524 0)
(-0.86889 -0.00492933 0)
(-0.851491 -0.00670425 0)
(-0.828584 -0.00967129 0)
(-0.797156 -0.0149179 0)
(-0.752059 -0.024498 0)
(-0.682546 -0.0421466 0)
(-0.56493 -0.0746146 0)
(-0.389308 -0.128123 0)
(-0.290204 -0.15237 0)
(-0.00516031 0.302906 0)
(-0.0270642 0.307345 0)
(-0.171338 0.217794 0)
(-0.30822 0.146586 0)
(-0.417155 0.0992178 0)
(-0.502409 0.0689615 0)
(-0.568823 0.0497122 0)
(-0.6208 0.0371728 0)
(-0.662022 0.0286892 0)
(-0.695211 0.0227139 0)
(-0.722304 0.0183447 0)
(-0.744676 0.0150422 0)
(-0.763319 0.0124722 0)
(-0.778954 0.0104197 0)
(-0.792117 0.00874168 0)
(-0.803207 0.00733943 0)
(-0.812525 0.00614305 0)
(-0.820303 0.00510166 0)
(-0.826717 0.00417737 0)
(-0.831901 0.00334132 0)
(-0.835957 0.00257103 0)
(-0.83896 0.00184859 0)
(-0.840965 0.00115932 0)
(-0.842009 0.000490885 0)
(-0.842114 -0.000167532 0)
(-0.841287 -0.0008258 0)
(-0.839523 -0.00149335 0)
(-0.836804 -0.00217971 0)
(-0.8331 -0.00289506 0)
(-0.828365 -0.00365083 0)
(-0.822538 -0.00446043 0)
(-0.81554 -0.00534031 0)
(-0.807267 -0.00631123 0)
(-0.797585 -0.00740013 0)
(-0.786323 -0.00864287 0)
(-0.773261 -0.0100883 0)
(-0.758109 -0.0118043 0)
(-0.740487 -0.013888 0)
(-0.719889 -0.0164816 0)
(-0.695629 -0.0198004 0)
(-0.66677 -0.02418 0)
(-0.632013 -0.0301615 0)
(-0.589548 -0.0386407 0)
(-0.536856 -0.0511296 0)
(-0.470619 -0.0701559 0)
(-0.386987 -0.0996665 0)
(-0.281771 -0.145082 0)
(-0.151484 -0.212598 0)
(-0.0164275 -0.298176 0)
(-0.000982614 -0.294667 0)
(0.0321103 0.264057 0)
(0.0563572 0.362351 0)
(-0.00366846 0.324993 0)
(-0.0959556 0.260558 0)
(-0.192361 0.200904 0)
(-0.281189 0.153875 0)
(-0.358319 0.118944 0)
(-0.423536 0.0933602 0)
(-0.478195 0.0744872 0)
(-0.523975 0.0603374 0)
(-0.562426 0.0495154 0)
(-0.594849 0.0410634 0)
(-0.622287 0.0343238 0)
(-0.645566 0.0288401 0)
(-0.665329 0.0242905 0)
(-0.682081 0.0204435 0)
(-0.696218 0.0171299 0)
(-0.708048 0.0142232 0)
(-0.717812 0.0116273 0)
(-0.725697 0.00926788 0)
(-0.731848 0.00708629 0)
(-0.736373 0.00503519 0)
(-0.739351 0.00307553 0)
(-0.740838 0.00117411 0)
(-0.740867 -0.000698193 0)
(-0.73945 -0.00256802 0)
(-0.736583 -0.00446089 0)
(-0.732243 -0.00640249 0)
(-0.726389 -0.00842004 0)
(-0.718961 -0.0105439 0)
(-0.709876 -0.0128092 0)
(-0.699027 -0.0152586 0)
(-0.686277 -0.017945 0)
(-0.671451 -0.0209361 0)
(-0.654329 -0.0243202 0)
(-0.634632 -0.0282144 0)
(-0.612008 -0.0327775 0)
(-0.586011 -0.0382273 0)
(-0.556075 -0.0448688 0)
(-0.521483 -0.0531342 0)
(-0.481339 -0.0636447 0)
(-0.434547 -0.0772981 0)
(-0.379838 -0.0953848 0)
(-0.315913 -0.119711 0)
(-0.241905 -0.152611 0)
(-0.158503 -0.19641 0)
(-0.0700189 -0.251274 0)
(0.0122457 -0.309878 0)
(0.0620276 -0.343199 0)
(0.0330366 -0.24989 0)
(0.0271439 0.205265 0)
(0.0637012 0.357901 0)
(0.0550019 0.375796 0)
(0.00760789 0.338716 0)
(-0.0600929 0.286131 0)
(-0.133768 0.235316 0)
(-0.205259 0.192029 0)
(-0.270789 0.156962 0)
(-0.329089 0.129059 0)
(-0.380148 0.106906 0)
(-0.424504 0.0892047 0)
(-0.462879 0.0749067 0)
(-0.495998 0.0632022 0)
(-0.524523 0.0534792 0)
(-0.549022 0.0452772 0)
(-0.569973 0.0382484 0)
(-0.58777 0.0321276 0)
(-0.602732 0.026711 0)
(-0.61512 0.0218395 0)
(-0.625138 0.0173874 0)
(-0.632949 0.0132539 0)
(-0.638679 0.00935648 0)
(-0.64242 0.00562636 0)
(-0.644239 0.00200458 0)
(-0.644175 -0.00156091 0)
(-0.64225 -0.00511777 0)
(-0.63846 -0.00871157 0)
(-0.632785 -0.0123879 0)
(-0.625183 -0.0161947 0)
(-0.615591 -0.0201847 0)
(-0.603924 -0.0244182 0)
(-0.590071 -0.0289671 0)
(-0.573893 -0.0339189 0)
(-0.555216 -0.0393833 0)
(-0.533827 -0.0454998 0)
(-0.509467 -0.0524486 0)
(-0.481824 -0.0604649 0)
(-0.450526 -0.0698591 0)
(-0.415139 -0.0810419 0)
(-0.375178 -0.0945579 0)
(-0.330136 -0.111123 0)
(-0.279567 -0.131654 0)
(-0.223252 -0.157265 0)
(-0.161546 -0.189134 0)
(-0.0960002 -0.228064 0)
(-0.0304173 -0.27324 0)
(0.0275563 -0.319309 0)
(0.0649273 -0.350707 0)
(0.0657371 -0.331873 0)
(0.026873 -0.189886 0)
(0.0184432 0.163518 0)
(0.0530182 0.331769 0)
(0.0682767 0.387337 0)
(0.0523748 0.380202 0)
(0.012481 0.344667 0)
(-0.0406814 0.300301 0)
(-0.0989455 0.256659 0)
(-0.157106 0.217591 0)
(-0.212222 0.184095 0)
(-0.262865 0.155924 0)
(-0.308519 0.132377 0)
(-0.349173 0.112664 0)
(-0.385062 0.0960589 0)
(-0.416526 0.0819425 0)
(-0.443931 0.0698089 0)
(-0.467626 0.0592501 0)
(-0.487926 0.0499396 0)
(-0.505107 0.0416158 0)
(-0.519399 0.0340682 0)
(-0.530997 0.0271262 0)
(-0.540057 0.0206496 0)
(-0.546704 0.014522 0)
(-0.551033 0.00864492 0)
(-0.553113 0.00293307 0)
(-0.55299 -0.00268925 0)
(-0.550689 -0.00829154 0)
(-0.546213 -0.01394 0)
(-0.539549 -0.0197005 0)
(-0.530662 -0.0256414 0)
(-0.519501 -0.0318368 0)
(-0.505993 -0.03837 0)
(-0.490046 -0.045338 0)
(-0.471547 -0.0528566 0)
(-0.450358 -0.0610668 0)
(-0.426321 -0.0701426 0)
(-0.399254 -0.0803011 0)
(-0.368956 -0.091814 0)
(-0.335221 -0.105021 0)
(-0.297857 -0.120342 0)
(-0.256727 -0.138287 0)
(-0.211827 -0.159448 0)
(-0.163417 -0.184452 0)
(-0.112239 -0.213826 0)
(-0.0598663 -0.247672 0)
(-0.00918152 -0.284981 0)
(0.035044 -0.322269 0)
(0.0656338 -0.35112 0)
(0.0734501 -0.354381 0)
(0.0532064 -0.301754 0)
(0.017913 -0.148303 0)
(0.011939 0.134774 0)
(0.0407091 0.300942 0)
(0.0649534 0.378605 0)
(0.0678958 0.396414 0)
(0.049331 0.379991 0)
(0.0153196 0.34715 0)
(-0.0278658 0.30866 0)
(-0.075226 0.270317 0)
(-0.123237 0.234827 0)
(-0.169656 0.203183 0)
(-0.213191 0.175484 0)
(-0.253187 0.15142 0)
(-0.289383 0.130529 0)
(-0.321752 0.112327 0)
(-0.350398 0.0963595 0)
(-0.375485 0.0822299 0)
(-0.3972 0.0695975 0)
(-0.415728 0.0581754 0)
(-0.431243 0.0477236 0)
(-0.443896 0.0380407 0)
(-0.453819 0.0289573 0)
(-0.461121 0.0203296 0)
(-0.465888 0.0120337 0)
(-0.468186 0.00396125 0)
(-0.468061 -0.0039846 0)
(-0.465543 -0.0118931 0)
(-0.460643 -0.0198488 0)
(-0.453357 -0.0279354 0)
(-0.443667 -0.0362383 0)
(-0.43154 -0.0448485 0)
(-0.416931 -0.0538661 0)
(-0.399782 -0.0634048 0)
(-0.380026 -0.0735962 0)
(-0.357587 -0.0845958 0)
(-0.33239 -0.0965882 0)
(-0.304361 -0.109794 0)
(-0.273452 -0.124473 0)
(-0.239653 -0.140929 0)
(-0.203039 -0.159503 0)
(-0.16382 -0.180555 0)
(-0.122439 -0.204407 0)
(-0.0797003 -0.231242 0)
(-0.0369587 -0.260879 0)
(0.00364254 -0.292379 0)
(0.0389356 -0.323345 0)
(0.0646304 -0.348798 0)
(0.0755573 -0.35956 0)
(0.0669777 -0.34039 0)
(0.040099 -0.269032 0)
(0.0114453 -0.120035 0)
(0.00785103 0.114302 0)
(0.0309349 0.271848 0)
(0.0569663 0.360857 0)
(0.0699033 0.396898 0)
(0.0658753 0.397696 0)
(0.0472392 0.377773 0)
(0.0179802 0.347382 0)
(-0.0179327 0.313047 0)
(-0.0571712 0.278554 0)
(-0.0972418 0.245882 0)
(-0.136443 0.215898 0)
(-0.173677 0.188839 0)
(-0.208284 0.164606 0)
(-0.239908 0.142942 0)
(-0.268389 0.123528 0)
(-0.293691 0.10604 0)
(-0.315849 0.0901726 0)
(-0.334939 0.0756502 0)
(-0.35105 0.0622295 0)
(-0.364277 0.049698 0)
(-0.374711 0.0378713 0)
(-0.382431 0.0265886 0)
(-0.387507 0.0157088 0)
(-0.389994 0.0051067 0)
(-0.389937 -0.0053307 0)
(-0.387366 -0.0157076 0)
(-0.382301 -0.0261226 0)
(-0.374751 -0.0366721 0)
(-0.364718 -0.047453 0)
(-0.352194 -0.0585663 0)
(-0.337169 -0.0701202 0)
(-0.319629 -0.0822338 0)
(-0.299565 -0.0950401 0)
(-0.276974 -0.10869 0)
(-0.251874 -0.123353 0)
(-0.224313 -0.139221 0)
(-0.194393 -0.156502 0)
(-0.162295 -0.175413 0)
(-0.128324 -0.196155 0)
(-0.0929702 -0.218872 0)
(-0.0569837 -0.243566 0)
(-0.0214829 -0.269959 0)
(0.0119302 -0.297248 0)
(0.0410631 -0.323729 0)
(0.0631145 -0.346226 0)
(0.0748822 -0.359322 0)
(0.0733369 -0.354508 0)
(0.0569883 -0.319597 0)
(0.0299745 -0.239391 0)
(0.00743889 -0.100172 0)
(0.0054024 0.0992712 0)
(0.0239052 0.24629 0)
(0.0486855 0.339899 0)
(0.066236 0.388213 0)
(0.0713833 0.402974 0)
(0.0640977 0.395283 0)
(0.0464023 0.374019 0)
(0.0210433 0.345573 0)
(-0.00924688 0.314196 0)
(-0.0421367 0.282493 0)
(-0.0758187 0.251938 0)
(-0.108971 0.223268 0)
(-0.140676 0.196762 0)
(-0.170326 0.172431 0)
(-0.197541 0.150141 0)
(-0.222099 0.129688 0)
(-0.243886 0.110843 0)
(-0.262861 0.093374 0)
(-0.279024 0.0770608 0)
(-0.292401 0.0617009 0)
(-0.303032 0.047111 0)
(-0.310962 0.033126 0)
(-0.316234 0.0195978 0)
(-0.31889 0.00639267 0)
(-0.318967 -0.0066114 0)
(-0.316496 -0.0195272 0)
(-0.311505 -0.032461 0)
(-0.304016 -0.0455156 0)
(-0.294051 -0.0587923 0)
(-0.281632 -0.0723939 0)
(-0.266786 -0.0864272 0)
(-0.249545 -0.101005 0)
(-0.229961 -0.116247 0)
(-0.208105 -0.132281 0)
(-0.184085 -0.149243 0)
(-0.158062 -0.167269 0)
(-0.130266 -0.186487 0)
(-0.101034 -0.206996 0)
(-0.070842 -0.228833 0)
(-0.0403557 -0.25191 0)
(-0.0104895 -0.275927 0)
(0.0175348 -0.300217 0)
(0.0421406 -0.323532 0)
(0.061398 -0.343731 0)
(0.0731434 -0.357383 0)
(0.0753184 -0.359325 0)
(0.0665859 -0.342345 0)
(0.0474072 -0.297271 0)
(0.0227565 -0.214129 0)
(0.00504929 -0.085807 0)
(0.00391693 0.0878303 0)
(0.0189355 0.224334 0)
(0.041434 0.318592 0)
(0.0605883 0.374624 0)
(0.0711542 0.400008 0)
(0.0717878 0.402903 0)
(0.0630985 0.390571 0)
(0.0467255 0.368789 0)
(0.0246856 0.341796 0)
(-0.00105978 0.312495 0)
(-0.0288167 0.282758 0)
(-0.0572225 0.253712 0)
(-0.0852354 0.22597 0)
(-0.112091 0.199811 0)
(-0.137248 0.175302 0)
(-0.160336 0.152387 0)
(-0.181112 0.130936 0)
(-0.199425 0.110788 0)
(-0.215187 0.0917698 0)
(-0.228356 0.0737068 0)
(-0.238917 0.0564325 0)
(-0.246875 0.0397912 0)
(-0.252246 0.0236386 0)
(-0.255052 0.00784156 0)
(-0.255322 -0.00772247 0)
(-0.253083 -0.0231675 0)
(-0.24837 -0.0386005 0)
(-0.241218 -0.0541232 0)
(-0.231668 -0.0698339 0)
(-0.219769 -0.085829 0)
(-0.205585 -0.102204 0)
(-0.189193 -0.119055 0)
(-0.170698 -0.136477 0)
(-0.15024 -0.154562 0)
(-0.128005 -0.173394 0)
(-0.104241 -0.193039 0)
(-0.0792804 -0.213531 0)
(-0.0535639 -0.234842 0)
(-0.0276705 -0.256845 0)
(-0.00235062 -0.279246 0)
(0.0214427 -0.301494 0)
(0.042533 -0.322648 0)
(0.0595298 -0.341201 0)
(0.0708971 -0.354856 0)
(0.0751357 -0.360284 0)
(0.071137 -0.352929 0)
(0.058702 -0.326994 0)
(0.0392767 -0.275822 0)
(0.0176609 -0.193016 0)
(0.00359806 -0.0750663 0)
(0.00297777 0.0788054 0)
(0.0153724 0.205528 0)
(0.0354248 0.298238 0)
(0.054596 0.358744 0)
(0.0681066 0.391853 0)
(0.0740169 0.403418 0)
(0.0720291 0.399167 0)
(0.0629155 0.384057 0)
(0.0480194 0.362033 0)
(0.0288615 0.336032 0)
(0.0068996 0.308126 0)
(-0.0165887 0.279704 0)
(-0.0405484 0.251641 0)
(-0.0641447 0.22445 0)
(-0.0867393 0.19839 0)
(-0.107857 0.173555 0)
(-0.127155 0.149934 0)
(-0.144391 0.127451 0)
(-0.1594 0.105993 0)
(-0.172074 0.0854322 0)
(-0.182346 0.0656313 0)
(-0.190182 0.046456 0)
(-0.195568 0.0277766 0)
(-0.198506 0.00947018 0)
(-0.199012 -0.00857834 0)
(-0.197111 -0.0264764 0)
(-0.19284 -0.0443242 0)
(-0.186244 -0.0622155 0)
(-0.177381 -0.0802381 0)
(-0.166325 -0.0984745 0)
(-0.153169 -0.117001 0)
(-0.13803 -0.135888 0)
(-0.12106 -0.155197 0)
(-0.10245 -0.174973 0)
(-0.0824464 -0.195242 0)
(-0.0613609 -0.215995 0)
(-0.0395906 -0.237168 0)
(-0.0176348 -0.258614 0)
(0.00388571 -0.28006 0)
(0.0242114 -0.301046 0)
(0.0424358 -0.320845 0)
(0.0575155 -0.338353 0)
(0.0683139 -0.351962 0)
(0.0737034 -0.359419 0)
(0.0727565 -0.357698 0)
(0.0650558 -0.342965 0)
(0.0510794 -0.310715 0)
(0.0326517 -0.256215 0)
(0.0140042 -0.175426 0)
(0.00267799 -0.0667728 0)
(0.00235259 0.0714709 0)
(0.0127494 0.189345 0)
(0.0305173 0.279347 0)
(0.0489151 0.342104 0)
(0.0637978 0.380616 0)
(0.0730556 0.39902 0)
(0.0758692 0.401727 0)
(0.0723938 0.392849 0)
(0.0634142 0.37589 0)
(0.0500234 0.353645 0)
(0.0333964 0.328231 0)
(0.0146522 0.301176 0)
(-0.005218 0.273537 0)
(-0.025379 0.24601 0)
(-0.0451525 0.219021 0)
(-0.0640032 0.192807 0)
(-0.0815191 0.167473 0)
(-0.0973903 0.143035 0)
(-0.111389 0.119454 0)
(-0.123352 0.0966549 0)
(-0.133167 0.0745429 0)
(-0.140762 0.0530146 0)
(-0.146093 0.0319642 0)
(-0.149143 0.0112875 0)
(-0.149915 -0.00911528 0)
(-0.148428 -0.0293376 0)
(-0.144719 -0.0494663 0)
(-0.138839 -0.0695803 0)
(-0.130861 -0.0897506 0)
(-0.120877 -0.110039 0)
(-0.109004 -0.130497 0)
(-0.0953886 -0.151162 0)
(-0.0802164 -0.172056 0)
(-0.0637169 -0.193176 0)
(-0.0461749 -0.214484 0)
(-0.0279413 -0.235898 0)
(-0.00944474 -0.257263 0)
(0.00879712 -0.278328 0)
(0.0261682 -0.298706 0)
(0.0419514 -0.317817 0)
(0.0553369 -0.334827 0)
(0.0654519 -0.348564 0)
(0.0714217 -0.357436 0)
(0.0724792 -0.359351 0)
(0.0681376 -0.351675 0)
(0.058436 -0.331279 0)
(0.0442025 -0.294734 0)
(0.0273034 -0.238721 0)
(0.0113111 -0.160723 0)
(0.00206424 -0.0601974 0)
(0.00191413 0.0653708 0)
(0.0107586 0.175322 0)
(0.026495 0.262058 0)
(0.0437561 0.325578 0)
(0.0590318 0.367717 0)
(0.0702693 0.391363 0)
(0.0763912 0.399863 0)
(0.0771479 0.396547 0)
(0.0728971 0.384433 0)
(0.0643609 0.366075 0)
(0.0524326 0.343517 0)
(0.0380416 0.318333 0)
(0.0220689 0.291684 0)
(0.00530083 0.264392 0)
(-0.01159 0.23702 0)
(-0.0280464 0.209926 0)
(-0.0436189 0.183325 0)
(-0.057953 0.157323 0)
(-0.0707754 0.131957 0)
(-0.0818801 0.107213 0)
(-0.0911166 0.0830428 0)
(-0.0983798 0.0593836 0)
(-0.103601 0.0361602 0)
(-0.106744 0.0132942 0)
(-0.107796 -0.00929182 0)
(-0.106771 -0.0316713 0)
(-0.103701 -0.0539115 0)
(-0.0986445 -0.076071 0)
(-0.0916795 -0.0981987 0)
(-0.0829109 -0.120331 0)
(-0.0724725 -0.142489 0)
(-0.0605312 -0.164675 0)
(-0.0472934 -0.186869 0)
(-0.0330112 -0.209016 0)
(-0.01799 -0.23102 0)
(-0.00259547 -0.252729 0)
(0.0127387 -0.273913 0)
(0.0275066 -0.294237 0)
(0.0411291 -0.313228 0)
(0.0529612 -0.330233 0)
(0.0623119 -0.344368 0)
(0.0684834 -0.354466 0)
(0.0708372 -0.359022 0)
(0.0688953 -0.356167 0)
(0.0624847 -0.343671 0)
(0.0519186 -0.319034 0)
(0.0381645 -0.27968 0)
(0.0229643 -0.223305 0)
(0.00927003 -0.14837 0)
(0.00163382 -0.054878 0)
(0.00159155 0.060208 0)
(0.00920056 0.163086 0)
(0.0231569 0.246346 0)
(0.0391389 0.309656 0)
(0.0542047 0.354096 0)
(0.0664659 0.381665 0)
(0.0747547 0.394868 0)
(0.0785773 0.396365 0)
(0.0779854 0.388698 0)
(0.073402 0.374129 0)
(0.0654673 0.354566 0)
(0.0549184 0.331552 0)
(0.0425045 0.306288 0)
(0.0289328 0.279677 0)
(0.0148374 0.252374 0)
(0.000766726 0.22484 0)
(-0.0128188 0.197383 0)
(-0.0255423 0.170195 0)
(-0.0371019 0.143384 0)
(-0.0472616 0.116998 0)
(-0.0558423 0.0910445 0)
(-0.0627126 0.0655011 0)
(-0.0677824 0.0403299 0)
(-0.0709966 0.0154838 0)
(-0.072331 -0.0090871 0)
(-0.0717892 -0.0334311 0)
(-0.0694012 -0.057591 0)
(-0.0652229 -0.0816009 0)
(-0.0593367 -0.105483 0)
(-0.0518536 -0.129245 0)
(-0.0429156 -0.152876 0)
(-0.0326998 -0.176342 0)
(-0.0214225 -0.199577 0)
(-0.0093441 -0.222481 0)
(0.00322625 -0.244903 0)
(0.0159261 -0.266631 0)
(0.0283373 -0.287371 0)
(0.0399861 -0.306728 0)
(0.0503493 -0.324173 0)
(0.0588676 -0.339015 0)
(0.0649713 -0.350367 0)
(0.0681228 -0.35711 0)
(0.0678793 -0.357869 0)
(0.0639798 -0.351017 0)
(0.0564582 -0.334702 0)
(0.0457727 -0.306951 0)
(0.0329043 -0.265852 0)
(0.0194015 -0.209817 0)
(0.00767876 -0.13794 0)
(0.00131801 -0.0505107 0)
(0.0013441 0.0557827 0)
(0.00794492 0.15235 0)
(0.0203403 0.232124 0)
(0.03501 0.294604 0)
(0.0494969 0.340378 0)
(0.0621172 0.37081 0)
(0.0717124 0.387762 0)
(0.0776588 0.39333 0)
(0.0798017 0.389623 0)
(0.0783362 0.378606 0)
(0.0736895 0.362013 0)
(0.0664212 0.341306 0)
(0.057145 0.317678 0)
(0.0464733 0.292066 0)
(0.0349815 0.265191 0)
(0.0231868 0.237587 0)
(0.0115393 0.209637 0)
(0.000419954 0.181609 0)
(-0.00985677 0.153679 0)
(-0.0190375 0.125955 0)
(-0.0269235 0.0984955 0)
(-0.0333646 0.0713253 0)
(-0.0382533 0.0444456 0)
(-0.0415194 0.0178441 0)
(-0.0431267 -0.00849801 0)
(-0.0430698 -0.0346 0)
(-0.0413722 -0.0604768 0)
(-0.0380863 -0.0861348 0)
(-0.0332932 -0.111568 0)
(-0.0271041 -0.136752 0)
(-0.0196623 -0.161643 0)
(-0.011146 -0.186169 0)
(-0.00177111 -0.210226 0)
(0.00820566 -0.233667 0)
(0.0184841 -0.256294 0)
(0.0287193 -0.277845 0)
(0.038522 -0.29798 0)
(0.0474635 -0.316257 0)
(0.0550846 -0.332119 0)
(0.0609137 -0.344867 0)
(0.0644936 -0.353637 0)
(0.0654231 -0.357388 0)
(0.0634118 -0.354893 0)
(0.058352 -0.344756 0)
(0.050403 -0.325461 0)
(0.0400808 -0.295469 0)
(0.0283108 -0.253367 0)
(0.01643 -0.198078 0)
(0.00640426 -0.129107 0)
(0.00107697 -0.0468891 0)
(0.00114734 0.0519559 0)
(0.00690507 0.142894 0)
(0.01792 0.219291 0)
(0.0312946 0.280563 0)
(0.0449772 0.326977 0)
(0.0574939 0.359442 0)
(0.0677508 0.379332 0)
(0.0750716 0.388285 0)
(0.079172 0.38803 0)
(0.0800817 0.380251 0)
(0.0780578 0.36649 0)
(0.0735054 0.348105 0)
(0.0669103 0.326243 0)
(0.0587865 0.301846 0)
(0.0496393 0.275665 0)
(0.0399405 0.248286 0)
(0.0301145 0.220153 0)
(0.0205311 0.191593 0)
(0.0115045 0.162843 0)
(0.00329426 0.134067 0)
(-0.00389066 0.105373 0)
(-0.0098879 0.0768323 0)
(-0.0145773 0.0484859 0)
(-0.017877 0.0203584 0)
(-0.01974 -0.00753585 0)
(-0.0201516 -0.0351849 0)
(-0.0191279 -0.0625739 0)
(-0.0167147 -0.0896796 0)
(-0.012988 -0.116465 0)
(-0.00805395 -0.142877 0)
(-0.00205091 -0.168835 0)
(0.00484943 -0.194234 0)
(0.01244 -0.218931 0)
(0.0204771 -0.242739 0)
(0.0286791 -0.265421 0)
(0.0367282 -0.286674 0)
(0.0442725 -0.306122 0)
(0.0509339 -0.323298 0)
(0.0563188 -0.337631 0)
(0.0600379 -0.348434 0)
(0.061732 -0.354887 0)
(0.0611096 -0.356038 0)
(0.0579933 -0.350807 0)
(0.0523764 -0.338013 0)
(0.0444847 -0.316424 0)
(0.0348364 -0.284847 0)
(0.0242666 -0.242249 0)
(0.0139082 -0.187915 0)
(0.00535711 -0.121618 0)
(0.000886547 -0.0438687 0)
(0.000985879 0.0486287 0)
(0.006022 0.13455 0)
(0.015801 0.207748 0)
(0.0279184 0.267603 0)
(0.0406592 0.314168 0)
(0.0527484 0.348028 0)
(0.0631842 0.370186 0)
(0.0712882 0.381914 0)
(0.0767033 0.384619 0)
(0.0793449 0.379727 0)
(0.0793399 0.368596 0)
(0.0769655 0.35246 0)
(0.072593 0.332402 0)
(0.0666418 0.309342 0)
(0.0595437 0.284041 0)
(0.051717 0.257115 0)
(0.0435501 0.229049 0)
(0.0353909 0.200222 0)
(0.0275423 0.170918 0)
(0.0202611 0.141352 0)
(0.0137583 0.111679 0)
(0.00820213 0.0820131 0)
(0.00372043 0.0524357 0)
(0.000403819 0.0230075 0)
(-0.00169176 -0.00622281 0)
(-0.00254284 -0.0352117 0)
(-0.00215693 -0.0639134 0)
(-0.00057154 -0.0922746 0)
(0.00214605 -0.120229 0)
(0.00589858 -0.147689 0)
(0.0105581 -0.174547 0)
(0.0159653 -0.200662 0)
(0.0219286 -0.225856 0)
(0.0282239 -0.249909 0)
(0.0345952 -0.272549 0)
(0.0407574 -0.293443 0)
(0.0464003 -0.312191 0)
(0.0511971 -0.328309 0)
(0.0548174 -0.34123 0)
(0.0569443 -0.350287 0)
(0.0573003 -0.354716 0)
(0.0556783 -0.353656 0)
(0.0519802 -0.346164 0)
(0.0462602 -0.331249 0)
(0.0387691 -0.307914 0)
(0.029994 -0.275239 0)
(0.0206651 -0.232479 0)
(0.0117282 -0.179175 0)
(0.00447558 -0.115284 0)
(0.000731402 -0.0413459 0)
(0.000849668 0.0457292 0)
(0.00525456 0.127191 0)
(0.0139119 0.19741 0)
(0.0248155 0.255755 0)
(0.0365306 0.302137 0)
(0.0479634 0.336909 0)
(0.058216 0.360792 0)
(0.0666389 0.374768 0)
(0.0728427 0.379977 0)
(0.0766693 0.377618 0)
(0.07815 0.368874 0)
(0.0774594 0.354857 0)
(0.0748713 0.336571 0)
(0.0707185 0.314899 0)
(0.0653609 0.290593 0)
(0.0591605 0.264283 0)
(0.0524634 0.236481 0)
(0.0455884 0.207603 0)
(0.0388194 0.177975 0)
(0.0324025 0.147852 0)
(0.0265443 0.117433 0)
(0.0214131 0.086871 0)
(0.0171401 0.0562849 0)
(0.0138214 0.0257711 0)
(0.01152 -0.00458878 0)
(0.0102674 -0.0347195 0)
(0.0100651 -0.0645452 0)
(0.0108854 -0.0939827 0)
(0.0126719 -0.122936 0)
(0.0153397 -0.151289 0)
(0.0187752 -0.178903 0)
(0.0228357 -0.205606 0)
(0.02735 -0.231191 0)
(0.0321184 -0.255408 0)
(0.0369148 -0.277957 0)
(0.0414894 -0.298483 0)
(0.0455749 -0.316566 0)
(0.0488946 -0.33172 0)
(0.0511744 -0.343384 0)
(0.0521603 -0.350922 0)
(0.0516395 -0.353626 0)
(0.0494673 -0.350722 0)
(0.0455975 -0.341391 0)
(0.0401154 -0.324801 0)
(0.0332691 -0.300151 0)
(0.0254947 -0.266733 0)
(0.0174149 -0.224017 0)
(0.00980828 -0.171733 0)
(0.00371604 -0.109958 0)
(0.000601373 -0.0392457 0)
(0.000731866 0.0432042 0)
(0.00457341 0.120718 0)
(0.0121989 0.188203 0)
(0.0219304 0.245029 0)
(0.0325686 0.291011 0)
(0.0431817 0.326336 0)
(0.0529782 0.35151 0)
(0.0613562 0.367289 0)
(0.0679222 0.374591 0)
(0.0724753 0.374423 0)
(0.07498 0.367809 0)
(0.075532 0.355742 0)
(0.0743241 0.339146 0)
(0.0716132 0.318855 0)
(0.0676921 0.295602 0)
(0.062867 0.270015 0)
(0.0574394 0.242623 0)
(0.0516942 0.213867 0)
(0.0458909 0.184105 0)
(0.0402592 0.153628 0)
(0.0349959 0.122669 0)
(0.0302647 0.091418 0)
(0.026196 0.0600279 0)
(0.0228886 0.028628 0)
(0.0204103 -0.00266862 0)
(0.0187998 -0.0337567 0)
(0.0180675 -0.0645315 0)
(0.0181963 -0.0948818 0)
(0.0191423 -0.124683 0)
(0.0208352 -0.153794 0)
(0.0231785 -0.182044 0)
(0.0260497 -0.209238 0)
(0.0293007 -0.23514 0)
(0.0327594 -0.259476 0)
(0.0362312 -0.281923 0)
(0.0395035 -0.302107 0)
(0.0423504 -0.3196 0)
(0.0445415 -0.333913 0)
(0.045853 -0.3445 0)
(0.0460825 -0.350757 0)
(0.0450674 -0.352027 0)
(0.0427068 -0.347616 0)
(0.0389852 -0.336814 0)
(0.0339973 -0.318919 0)
(0.02797 -0.293287 0)
(0.0212786 -0.259377 0)
(0.0144402 -0.216821 0)
(0.00808597 -0.165485 0)
(0.00304696 -0.10553 0)
(0.000489484 -0.0375126 0)
(0.000627683 0.041014 0)
(0.00395721 0.115057 0)
(0.0106211 0.180068 0)
(0.0192176 0.235426 0)
(0.0287475 0.280879 0)
(0.0384235 0.316493 0)
(0.0475576 0.342617 0)
(0.055606 0.359825 0)
(0.0621903 0.36886 0)
(0.0670902 0.370563 0)
(0.0702262 0.36582 0)
(0.0716353 0.355515 0)
(0.0714455 0.340492 0)
(0.0698487 0.321533 0)
(0.0670775 0.299341 0)
(0.0633848 0.274537 0)
(0.0590276 0.247656 0)
(0.0542545 0.219153 0)
(0.0492974 0.189411 0)
(0.0443655 0.158748 0)
(0.0396414 0.127428 0)
(0.0352803 0.0956715 0)
(0.0314085 0.0636614 0)
(0.0281246 0.031557 0)
(0.0254996 -0.000499992 0)
(0.0235777 -0.0323768 0)
(0.022378 -0.0639419 0)
(0.0218941 -0.0950579 0)
(0.0220958 -0.125576 0)
(0.0229286 -0.155327 0)
(0.0243151 -0.184119 0)
(0.0261545 -0.21173 0)
(0.0283244 -0.237903 0)
(0.0306812 -0.262341 0)
(0.0330634 -0.284704 0)
(0.0352944 -0.304605 0)
(0.037188 -0.321607 0)
(0.0385559 -0.335226 0)
(0.0392175 -0.344928 0)
(0.0390124 -0.35014 0)
(0.0378156 -0.350252 0)
(0.035555 -0.344641 0)
(0.0322297 -0.332682 0)
(0.0279286 -0.313785 0)
(0.0228457 -0.287426 0)
(0.0172902 -0.253197 0)
(0.0116793 -0.210849 0)
(0.00651332 -0.160348 0)
(0.00244511 -0.101916 0)
(0.0003908 -0.0361056 0)
(0.00053367 0.0391287 0)
(0.00339013 0.11015 0)
(0.00914692 0.172957 0)
(0.0166401 0.226938 0)
(0.0250426 0.2718 0)
(0.0336959 0.30752 0)
(0.0420111 0.334326 0)
(0.0495079 0.352656 0)
(0.0558357 0.363108 0)
(0.0607716 0.366388 0)
(0.0642102 0.363266 0)
(0.0661469 0.354524 0)
(0.0666588 0.340935 0)
(0.065884 0.323225 0)
(0.0640019 0.302067 0)
(0.0612164 0.278066 0)
(0.0577414 0.251755 0)
(0.0537889 0.223598 0)
(0.049561 0.193995 0)
(0.0452436 0.163285 0)
(0.0410024 0.131755 0)
(0.0369805 0.0996513 0)
(0.0332977 0.0671837 0)
(0.0300496 0.0345371 0)
(0.0273082 0.00187823 0)
(0.0251225 -0.0306353 0)
(0.023519 -0.0628482 0)
(0.0225023 -0.0946 0)
(0.0220556 -0.125719 0)
(0.0221415 -0.156014 0)
(0.0227022 -0.185271 0)
(0.0236601 -0.213249 0)
(0.024919 -0.239669 0)
(0.026365 -0.264217 0)
(0.0278688 -0.286538 0)
(0.0292892 -0.306234 0)
(0.0304769 -0.322864 0)
(0.0312815 -0.335945 0)
(0.0315592 -0.344959 0)
(0.0311833 -0.349357 0)
(0.030056 -0.348571 0)
(0.0281224 -0.342031 0)
(0.0253844 -0.329187 0)
(0.0219142 -0.309533 0)
(0.0178657 -0.282643 0)
(0.0134807 -0.248205 0)
(0.00908186 -0.206064 0)
(0.00505318 -0.156258 0)
(0.00189305 -0.099051 0)
(0.000301738 -0.0349946 0)
(0.000447276 0.0375257 0)
(0.0028602 0.105953 0)
(0.00775206 0.166831 0)
(0.0141677 0.219561 0)
(0.0214311 0.263818 0)
(0.0289994 0.29952 0)
(0.0363773 0.326804 0)
(0.0431502 0.346 0)
(0.0490037 0.357596 0)
(0.0537248 0.362189 0)
(0.0571958 0.360446 0)
(0.0593844 0.353067 0)
(0.060329 0.340756 0)
(0.0601234 0.324191 0)
(0.0589015 0.30401 0)
(0.0568227 0.280798 0)
(0.05406 0.255084 0)
(0.0507896 0.227334 0)
(0.047183 0.197957 0)
(0.0434011 0.167307 0)
(0.0395903 0.135692 0)
(0.0358795 0.103376 0)
(0.0323791 0.0705925 0)
(0.0291799 0.0375465 0)
(0.0263531 0.00442692 0)
(0.0239507 -0.0285879 0)
(0.0220058 -0.061322 0)
(0.0205333 -0.093595 0)
(0.01953 -0.125215 0)
(0.0189752 -0.155974 0)
(0.0188315 -0.185638 0)
(0.0190447 -0.213948 0)
(0.019545 -0.240609 0)
(0.0202481 -0.265293 0)
(0.0210565 -0.28763 0)
(0.0218627 -0.307215 0)
(0.0225518 -0.323602 0)
(0.0230073 -0.33631 0)
(0.0231169 -0.344832 0)
(0.0227806 -0.348638 0)
(0.02192 -0.347193 0)
(0.0204886 -0.339969 0)
(0.0184824 -0.326473 0)
(0.0159499 -0.306264 0)
(0.0130005 -0.278988 0)
(0.00980837 -0.244408 0)
(0.00660746 -0.202437 0)
(0.00367649 -0.153166 0)
(0.00137751 -0.0968889 0)
(0.000219635 -0.034157 0)
(0.000366566 0.036188 0)
(0.00235816 0.102432 0)
(0.00641716 0.161661 0)
(0.0117758 0.213285 0)
(0.0178929 0.256965 0)
(0.0243305 0.29257 0)
(0.0306819 0.320175 0)
(0.0365988 0.340029 0)
(0.0418084 0.352533 0)
(0.0461158 0.358197 0)
(0.0494022 0.357607 0)
(0.051618 0.351392 0)
(0.0527731 0.340196 0)
(0.0529256 0.324653 0)
(0.0521703 0.305369 0)
(0.0506269 0.282908 0)
(0.0484305 0.257788 0)
(0.0457225 0.230476 0)
(0.0426437 0.201384 0)
(0.0393292 0.170878 0)
(0.0359044 0.139277 0)
(0.0324822 0.106863 0)
(0.0291615 0.0738834 0)
(0.0260263 0.0405631 0)
(0.0231453 0.00710728 0)
(0.0205721 -0.0262884 0)
(0.0183454 -0.0594313 0)
(0.0164892 -0.0921247 0)
(0.0150134 -0.124161 0)
(0.0139139 -0.155316 0)
(0.0131732 -0.185342 0)
(0.0127606 -0.213963 0)
(0.0126328 -0.240873 0)
(0.0127342 -0.26573 0)
(0.0129986 -0.288154 0)
(0.0133503 -0.307731 0)
(0.0137069 -0.32401 0)
(0.0139824 -0.336512 0)
(0.0140919 -0.344734 0)
(0.013957 -0.348161 0)
(0.0135125 -0.346279 0)
(0.012714 -0.338593 0)
(0.0115458 -0.324648 0)
(0.0100281 -0.30405 0)
(0.00822305 -0.276498 0)
(0.00623815 -0.241808 0)
(0.00422316 -0.199943 0)
(0.00236025 -0.151033 0)
(0.000888156 -0.0953943 0)
(0.000142464 -0.0335768 0)
(0.000290027 0.0351027 0)
(0.00187662 0.0995625 0)
(0.00512654 0.157424 0)
(0.00944383 0.208107 0)
(0.0144099 0.251261 0)
(0.0196837 0.286729 0)
(0.0249425 0.314535 0)
(0.0299042 0.334874 0)
(0.0343406 0.34808 0)
(0.0380816 0.354595 0)
(0.0410145 0.354944 0)
(0.0430807 0.349697 0)
(0.0442699 0.339449 0)
(0.0446115 0.324794 0)
(0.0441669 0.306309 0)
(0.0430205 0.284539 0)
(0.041272 0.259989 0)
(0.0390295 0.233121 0)
(0.0364037 0.20435 0)
(0.0335032 0.174046 0)
(0.0304314 0.142539 0)
(0.0272835 0.110119 0)
(0.0241455 0.0770484 0)
(0.0210927 0.0435626 0)
(0.0181897 0.00988089 0)
(0.0154902 -0.0237882 0)
(0.013037 -0.0572394 0)
(0.0108625 -0.0902635 0)
(0.0089887 -0.122641 0)
(0.00742744 -0.154135 0)
(0.00618075 -0.184486 0)
(0.00524087 -0.213409 0)
(0.00459029 -0.240584 0)
(0.00420202 -0.26566 0)
(0.00403991 -0.288248 0)
(0.00405932 -0.307925 0)
(0.00420822 -0.324235 0)
(0.00442901 -0.336697 0)
(0.00466098 -0.344808 0)
(0.00484372 -0.348059 0)
(0.0049214 -0.34595 0)
(0.00484766 -0.338003 0)
(0.00459111 -0.323787 0)
(0.00414058 -0.30294 0)
(0.00350982 -0.275196 0)
(0.00274061 -0.240406 0)
(0.00190208 -0.198566 0)
(0.00108597 -0.149834 0)
(0.000416814 -0.0945424 0)
(6.8643e-05 -0.0332426 0)
(0.000216425 0.0342609 0)
(0.00140947 0.0973256 0)
(0.003867 0.154102 0)
(0.00715389 0.20402 0)
(0.0109658 0.246723 0)
(0.015052 0.282036 0)
(0.019171 0.309954 0)
(0.0231057 0.330631 0)
(0.0266749 0.344356 0)
(0.0297371 0.351523 0)
(0.0321914 0.352608 0)
(0.0339767 0.348137 0)
(0.035068 0.338666 0)
(0.0354719 0.324756 0)
(0.035221 0.30696 0)
(0.0343678 0.285803 0)
(0.0329793 0.261779 0)
(0.0311317 0.235344 0)
(0.0289058 0.20691 0)
(0.0263838 0.17685 0)
(0.0236459 0.145496 0)
(0.0207688 0.113148 0)
(0.0178238 0.0800742 0)
(0.0148763 0.0465187 0)
(0.011985 0.0127095 0)
(0.00920218 -0.021136 0)
(0.00657363 -0.0548039 0)
(0.00413865 -0.0880768 0)
(0.00193035 -0.120727 0)
(-2.42883e-05 -0.152509 0)
(-0.00170446 -0.183156 0)
(-0.00309565 -0.212374 0)
(-0.00419001 -0.239836 0)
(-0.00498668 -0.265181 0)
(-0.00549229 -0.288013 0)
(-0.00572134 -0.3079 0)
(-0.00569644 -0.324381 0)
(-0.00544823 -0.336966 0)
(-0.00501482 -0.34515 0)
(-0.0044406 -0.348422 0)
(-0.00377443 -0.346284 0)
(-0.00306695 -0.338263 0)
(-0.00236733 -0.32394 0)
(-0.00171964 -0.302968 0)
(-0.00115908 -0.275096 0)
(-0.000708878 -0.240199 0)
(-0.000378153 -0.198291 0)
(-0.000161594 -0.149549 0)
(-4.32085e-05 -0.0943165 0)
(-3.10953e-06 -0.0331468 0)
(0.000144706 0.0336562 0)
(0.000951428 0.0957093 0)
(0.0026269 0.151685 0)
(0.00488992 0.201022 0)
(0.00754474 0.243362 0)
(0.0104274 0.278522 0)
(0.0133747 0.306481 0)
(0.0162343 0.32737 0)
(0.0188731 0.341448 0)
(0.0211809 0.349079 0)
(0.0230725 0.350704 0)
(0.0244882 0.34682 0)
(0.0253929 0.337954 0)
(0.0257743 0.324641 0)
(0.0256396 0.307413 0)
(0.0250122 0.28678 0)
(0.0239282 0.263225 0)
(0.022433 0.237194 0)
(0.0205782 0.209098 0)
(0.0184191 0.179306 0)
(0.0160125 0.148154 0)
(0.0134151 0.115941 0)