/*--------------------------------*- C++ -*----------------------------------*\
  =========                 |
  \\      /  F ield         | OpenFOAM: The Open Source CFD Toolbox
   \\    /   O peration     | Website:  https://openfoam.org
    \\  /    A nd           | Version:  7
     \\/     M anipulation  |
\*---------------------------------------------------------------------------*/
FoamFile
{
    version     2.0;
    format      ascii;
    class       volScalarField;
    location    "0.0426";
    object      p;
}
// * * * * * * * * * * * * * * * * * * * * * * * * * * * * * * * * * * * * * //

dimensions      [0 2 -2 0 0 0 0];

internalField   nonuniform List<scalar> 
2500
(
-3.02696e-06
-0.000518323
-0.00204656
-0.00427717
-0.0068711
-0.00953481
-0.0120551
-0.0142627
-0.016031
-0.0172686
-0.0179124
-0.0179227
-0.017279
-0.015977
-0.0140262
-0.0114474
-0.00827128
-0.00453705
-0.000291135
0.00441377
0.00951951
0.0149633
0.0206785
0.0265948
0.0326395
0.0387377
0.0448132
0.0507888
0.0565878
0.0621343
0.0673542
0.0721768
0.0765356
0.0803694
0.0836244
0.0862553
0.0882269
0.0895165
0.090115
0.0900302
0.0892881
0.0879368
0.0860492
0.0837279
0.0811105
0.0783756
0.075747
0.0735127
0.0720181
0.0715518
0.000492709
-1.51302e-05
-0.00125382
-0.0030184
-0.00505016
-0.00714503
-0.00913204
-0.01087
-0.0122479
-0.0131816
-0.0136105
-0.0134939
-0.0128085
-0.0115459
-0.00971049
-0.00731755
-0.00439188
-0.000966474
0.00291848
0.00721664
0.0118763
0.0168411
0.0220508
0.027442
0.0329486
0.0385027
0.0440349
0.0494756
0.0547552
0.0598053
0.0645599
0.0689557
0.0729341
0.0764418
0.0794324
0.0818677
0.0837196
0.084971
0.0856183
0.0856725
0.0851618
0.0841337
0.0826569
0.0808244
0.0787562
0.0766011
0.0745364
0.0727664
0.0715476
0.0710858
0.00201219
0.00121421
-3.04161e-05
-0.00162269
-0.00339967
-0.00520276
-0.00689427
-0.00835797
-0.00949911
-0.0102436
-0.0105362
-0.0103389
-0.00962873
-0.00839611
-0.00664311
-0.00438197
-0.00163392
0.00157202
0.00519994
0.00920794
0.0135489
0.0181713
0.0230197
0.0280356
0.033158
0.0383239
0.0434694
0.0485299
0.0534413
0.0581407
0.0625673
0.0666634
0.0703755
0.0736556
0.076462
0.0787612
0.0805287
0.081751
0.0824263
0.0825668
0.0821998
0.0813694
0.0801379
0.0785874
0.0768207
0.074961
0.0731514
0.0715516
0.0703249
0.0695975
0.00425693
0.00298712
0.00153689
-8.18575e-05
-0.00179695
-0.00348374
-0.0050313
-0.00634611
-0.00734993
-0.00797996
-0.00818855
-0.0079422
-0.00722043
-0.00601441
-0.00432574
-0.00216531
0.000447779
0.00348708
0.00691969
0.010707
0.0148054
0.0191671
0.0237404
0.0284708
0.0333011
0.0381727
0.0430254
0.047799
0.0524334
0.0568698
0.0610513
0.0649242
0.0684387
0.0715503
0.0742206
0.0764185
0.078122
0.0793185
0.0800068
0.0801981
0.079917
0.0792026
0.0781096
0.0767085
0.0750853
0.0733409
0.071592
0.0699661
0.0685421
0.0673458
0.00692482
0.00506557
0.00330797
0.00155535
-0.000204675
-0.00187438
-0.00336537
-0.004605
-0.00553103
-0.00609231
-0.00624949
-0.00597472
-0.00525108
-0.00407163
-0.00243857
-0.000362389
0.00213896
0.00504083
0.00831256
0.0119181
0.0158169
0.0199639
0.024311
0.0288067
0.0333975
0.038028
0.0426417
0.0471816
0.0515911
0.0558146
0.0597985
0.0634921
0.0668485
0.0698254
0.0723867
0.074503
0.076153
0.0773247
0.0780159
0.0782357
0.0780051
0.0773574
0.076339
0.075009
0.073438
0.0717062
0.0699086
0.0681474
0.066421
0.0646473
0.00976404
0.00727274
0.00514455
0.00318178
0.00129622
-0.000434563
-0.00194039
-0.00316689
-0.00406642
-0.004599
-0.00473372
-0.00444888
-0.00373172
-0.00257803
-0.000991437
0.00101716
0.00343021
0.00622408
0.00936965
0.0128328
0.0165752
0.0205543
0.0247245
0.0290372
0.0334416
0.037885
0.0423138
0.0466737
0.0509108
0.0549721
0.0588062
0.0623647
0.0656024
0.0684787
0.0709586
0.0730134
0.0746218
0.0757709
0.0764571
0.0766863
0.0764754
0.0758517
0.0748533
0.0735288
0.0719345
0.0701336
0.0682037
0.0662284
0.0641334
0.0617379
0.0125933
0.0094605
0.006925
0.00469894
0.00262803
0.000775675
-0.00080202
-0.00206606
-0.00298169
-0.00351917
-0.00365569
-0.00337574
-0.00267119
-0.00154096
9.27131e-06
0.00196753
0.00431598
0.00703139
0.0100855
0.0134456
0.0170748
0.0209325
0.0249751
0.0291562
0.033427
0.0377371
0.042035
0.0462685
0.0503855
0.054335
0.058067
0.0615344
0.0646932
0.0675034
0.0699302
0.0719447
0.0735247
0.0746558
0.075332
0.0755559
0.0753396
0.0747044
0.0736809
0.0723079
0.0706298
0.0686957
0.0665704
0.064325
0.0618218
0.0587927
0.0152726
0.0115051
0.00854359
0.00601989
0.00372212
0.00170441
1.23638e-05
-0.00132772
-0.00229212
-0.00286028
-0.00301689
-0.00275249
-0.00206359
-0.00095263
0.0005723
0.00249768
0.0048049
0.00747054
0.0104667
0.0137614
0.0173187
0.0210996
0.0250617
0.0291601
0.0333478
0.037576
0.0417945
0.0459528
0.05
0.0538859
0.0575618
0.0609809
0.0640994
0.0668773
0.0692793
0.0712754
0.072842
0.0739625
0.0746276
0.0748366
0.0745967
0.0739234
0.0728402
0.0713775
0.0695699
0.0674551
0.0650892
0.0625359
0.0596025
0.0559435
0.0176946
0.0133046
0.00990846
0.00706521
0.00451221
0.00229802
0.000460753
-0.000983689
-0.00202093
-0.00263844
-0.00282777
-0.00258517
-0.00191176
-0.000813581
0.000698591
0.00260935
0.00489888
0.00754315
0.0105141
0.0137801
0.0173058
0.0210528
0.0249799
0.0290431
0.0331966
0.0373924
0.0415816
0.0457142
0.0497402
0.0536098
0.0572745
0.0606872
0.063804
0.0665839
0.0689903
0.0709916
0.072562
0.0736822
0.0743397
0.0745295
0.0742543
0.0735239
0.0723556
0.0707727
0.0688017
0.0664715
0.0638326
0.0609453
0.0575691
0.0532884
0.0197751
0.014774
0.0109391
0.00776196
0.00493424
0.00250167
0.000497194
-0.00107172
-0.0021986
-0.00287789
-0.00310735
-0.00288858
-0.00222715
-0.00113272
0.00038108
0.00229671
0.00459284
0.00724445
0.010223
0.0134967
0.0170303
0.0207858
0.0247224
0.028797
0.0329639
0.0371762
0.041385
0.0455409
0.0495938
0.0534939
0.0571921
0.0606409
0.063795
0.0666121
0.0690538
0.0710861
0.0726805
0.0738145
0.0744719
0.0746435
0.0743273
0.0735281
0.0722572
0.070532
0.0683727
0.0658015
0.0628659
0.0596258
0.055798
0.050902
0.021445
0.0158401
0.0115633
0.00804245
0.00492643
0.00226026
7.34577e-05
-0.00163339
-0.00286053
-0.00360853
-0.00388075
-0.00368376
-0.00302745
-0.00192504
-0.000393127
0.00154842
0.00387653
0.00656491
0.00958419
0.012902
0.0164829
0.020289
0.0242794
0.0284112
0.032639
0.0369159
0.0411931
0.0454208
0.0495487
0.0535263
0.0573036
0.0608316
0.0640634
0.0669548
0.0694647
0.0715565
0.0731984
0.0743641
0.0750335
0.0751932
0.0748362
0.0739624
0.0725783
0.0706961
0.0683306
0.0654993
0.0622489
0.058641
0.0543529
0.0488427
0.0226444
0.0164375
0.011715
0.00784257
0.00442843
0.00151821
-0.000860735
-0.00271359
-0.00404638
-0.00486515
-0.00517837
-0.00499728
-0.00433589
-0.00321101
-0.00164224
0.000348091
0.00273494
0.00549052
0.00858431
0.0119831
0.0156511
0.0195497
0.0236381
0.0278731
0.0322091
0.0365988
0.0409931
0.0453416
0.0495932
0.053696
0.0575987
0.0612506
0.0646024
0.0676073
0.0702213
0.0724043
0.0741207
0.0753404
0.0760387
0.0761976
0.0758055
0.0748576
0.0733555
0.0713071
0.0687233
0.0656177
0.0620375
0.0580485
0.0532897
0.047159
0.0233182
0.016505
0.011331
0.0071
0.00338025
0.000218911
-0.00235791
-0.00436044
-0.00579986
-0.00668716
-0.00703559
-0.00686083
-0.00618094
-0.00501628
-0.00338951
-0.00132555
0.00114842
0.00400288
0.00720597
0.0107234
0.0145186
0.0185524
0.0227833
0.0271676
0.0316593
0.0362105
0.0407712
0.0452902
0.0497149
0.0539921
0.0580683
0.0618906
0.065407
0.0685674
0.0713245
0.0736341
0.0754565
0.0767568
0.0775058
0.0776804
0.0772644
0.076248
0.0746286
0.0724101
0.0695999
0.0662091
0.0622866
0.057903
0.05266
0.0458949
0.023413
0.0159832
0.0103493
0.0057526
0.00172109
-0.001696
-0.00447326
-0.00662548
-0.00816863
-0.00911835
-0.00949246
-0.00931098
-0.00859596
-0.00737133
-0.00566291
-0.00349833
-0.000907047
0.00207951
0.00542792
0.00910267
0.013066
0.0172781
0.0216966
0.0262771
0.0309727
0.0357347
0.0405121
0.0452522
0.049901
0.0544033
0.0587031
0.0627449
0.0664734
0.0698349
0.0727778
0.0752537
0.0772179
0.0786305
0.079457
0.0796693
0.0792457
0.0781719
0.0764409
0.0740528
0.071012
0.0673275
0.0630509
0.0582587
0.0525143
0.0450927
0.0228741
0.0148117
0.0087069
0.00373684
-0.000611872
-0.00428753
-0.00726517
-0.00956394
-0.0112045
-0.0122069
-0.0125936
-0.0123889
-0.0116189
-0.0103112
-0.00849486
-0.00620034
-0.00345955
-0.00030599
0.00322521
0.0070971
0.0112708
0.0157052
0.0203572
0.0251815
0.0301302
0.0351533
0.0401988
0.0452123
0.0501378
0.0549179
0.0594941
0.0638073
0.0677987
0.0714105
0.0745864
0.0772728
0.0794198
0.0809817
0.0819183
0.0821957
0.0817867
0.0806719
0.0788398
0.0762868
0.0730144
0.0690299
0.0643879
0.0591716
0.0529046
0.0447966
0.0216441
0.0129275
0.00633828
0.000986321
-0.00368459
-0.00762019
-0.0107959
-0.0132352
-0.0149635
-0.0160055
-0.0163882
-0.0161403
-0.0152923
-0.0138753
-0.0119219
-0.00946569
-0.00654101
-0.00318362
0.000569493
0.00467979
0.00910704
0.0138091
0.0187417
0.0238583
0.0291103
0.0344462
0.0398126
0.0451533
0.0504103
0.0555235
0.0604314
0.0650713
0.0693804
0.073296
0.0767567
0.0797033
0.0820796
0.0838337
0.084919
0.0852951
0.0849288
0.083795
0.0818772
0.0791682
0.0756664
0.0713773
0.066359
0.0607017
0.0538869
0.0450549
0.0196607
0.0102636
0.00317369
-0.00256953
-0.00756731
-0.0117629
-0.0151321
-0.0177032
-0.0195064
-0.0205713
-0.0209298
-0.0206154
-0.0196626
-0.018107
-0.0159847
-0.0133322
-0.0101868
-0.00658665
-0.00257069
0.00182089
0.00654642
0.0115625
0.0168238
0.0222828
0.0278894
0.0335912
0.0393329
0.0450566
0.050702
0.0562063
0.0615045
0.0665302
0.0712158
0.0754936
0.0792963
0.0825583
0.0852167
0.0872125
0.0884917
0.0890068
0.0887176
0.0875928
0.0856105
0.0827589
0.0790331
0.0744368
0.0690315
0.0629149
0.0555232
0.0459225
0.0168552
0.00674695
-0.000862157
-0.0070067
-0.0123356
-0.0167898
-0.0203458
-0.023037
-0.0248989
-0.0259665
-0.0262768
-0.0258685
-0.0247808
-0.0230536
-0.0207269
-0.0178408
-0.0144353
-0.0105512
-0.00622941
-0.00151194
0.00355812
0.00893613
0.0145756
0.020428
0.0264421
0.0325641
0.0387373
0.0449018
0.0509951
0.0569512
0.0627018
0.0681762
0.0733019
0.0780054
0.0822131
0.0858523
0.0888525
0.0911465
0.0926723
0.093374
0.0932037
0.0921227
0.0901028
0.0871271
0.0831867
0.0782828
0.0724805
0.0658851
0.0578839
0.0474628
0.0131518
0.00229748
-0.00585135
-0.0124078
-0.0180716
-0.0227814
-0.0265149
-0.0293112
-0.031212
-0.0322579
-0.0324918
-0.0319581
-0.0307012
-0.0287657
-0.0261958
-0.0230353
-0.0193275
-0.0151156
-0.0104428
-0.00535297
0.000109478
0.00589869
0.0119672
0.0182653
0.024741
0.0313392
0.0380017
0.0446669
0.0512698
0.0577416
0.0640103
0.0700007
0.075635
0.0808335
0.0855155
0.0896007
0.0930098
0.0956667
0.0974999
0.0984443
0.0984427
0.0974479
0.0954243
0.0923488
0.0882075
0.0829985
0.0767902
0.0696958
0.0610492
0.0497494
0.00846597
-0.00317316
-0.0118841
-0.0188633
-0.0248647
-0.0298251
-0.0337239
-0.0366068
-0.0385221
-0.0395174
-0.0396421
-0.0389467
-0.0374817
-0.0352968
-0.0324408
-0.0289616
-0.0249059
-0.0203197
-0.0152484
-0.00973762
-0.0038332
0.00241796
0.00896749
0.015765
0.0227576
0.0298893
0.0371006
0.0443284
0.0515053
0.0585596
0.0654157
0.0719937
0.0782102
0.083979
0.0892117
0.0938191
0.0977127
0.100806
0.103017
0.104269
0.104496
0.103638
0.101653
0.0985086
0.0941857
0.0886778
0.0820563
0.0744422
0.0651113
0.0528685
0.00270346
-0.00976297
-0.01906
-0.0264728
-0.0328131
-0.0380166
-0.0420649
-0.0450112
-0.046912
-0.0478224
-0.0477993
-0.0469006
-0.0451831
-0.0427026
-0.0395131
-0.0356667
-0.031214
-0.0262038
-0.0206839
-0.0147015
-0.00830373
-0.00153842
0.00554548
0.0128971
0.0204631
0.0281868
0.0360079
0.0438617
0.0516791
0.0593857
0.0669021
0.0741438
0.0810217
0.0874424
0.0933093
0.0985238
0.102987
0.1066
0.109269
0.110906
0.111429
0.110771
0.108875
0.105702
0.101223
0.0954268
0.0883874
0.0802334
0.0701769
0.0569203
-0.00424091
-0.0175809
-0.0274895
-0.0353463
-0.0420251
-0.0474608
-0.0516381
-0.0546195
-0.0564705
-0.0572551
-0.0570392
-0.0558888
-0.0538684
-0.0510403
-0.0474645
-0.0431979
-0.038295
-0.0328076
-0.026786
-0.020279
-0.0133348
-0.00600172
0.00167095
0.0096323
0.0178289
0.026204
0.0346968
0.0432419
0.0517684
0.0601996
0.0684527
0.0764387
0.0840624
0.0912233
0.0978158
0.103731
0.108858
0.113085
0.116305
0.118414
0.119318
0.118932
0.117188
0.114034
0.109433
0.103366
0.0959078
0.0871946
0.076369
0.062022
-0.0124845
-0.0267485
-0.0372956
-0.0456061
-0.0526202
-0.0582729
-0.0625534
-0.0655346
-0.067293
-0.0679033
-0.0674415
-0.0659833
-0.0636021
-0.0603677
-0.0563466
-0.0516011
-0.04619
-0.0401685
-0.033589
-0.026502
-0.0189563
-0.0110006
-0.00268386
0.00594342
0.0148284
0.0239148
0.0331421
0.0424444
0.05175
0.0609804
0.0700498
0.0788647
0.0873242
0.0953202
0.102738
0.109457
0.115353
0.120302
0.124178
0.126861
0.12824
0.128214
0.126698
0.123625
0.118946
0.112633
0.104759
0.0954697
0.0838297
0.0683096
-0.0221585
-0.0374017
-0.0486156
-0.0573881
-0.0647311
-0.0705802
-0.0749307
-0.0778681
-0.0794819
-0.0798594
-0.0790891
-0.0772577
-0.0744487
-0.0707411
-0.0662084
-0.0609191
-0.0549366
-0.0483196
-0.0411227
-0.0333976
-0.0251937
-0.0165592
-0.00754253
0.00180714
0.0114382
0.0212957
0.0313201
0.0414462
0.0516019
0.0617077
0.0716754
0.0814077
0.0907981
0.0997308
0.108081
0.115717
0.122501
0.12829
0.132943
0.136319
0.138286
0.138723
0.137525
0.134609
0.129909
0.123383
0.115104
0.105224
0.0927232
0.0759408
-0.0334095
-0.049693
-0.0616037
-0.0708448
-0.0785053
-0.0845232
-0.0889014
-0.0917408
-0.0931464
-0.093221
-0.0920674
-0.0897859
-0.0864718
-0.0822141
-0.077095
-0.0711897
-0.0645664
-0.0572875
-0.0494098
-0.0409859
-0.0320652
-0.0226951
-0.0129223
-0.00279407
0.0076402
0.0183278
0.0292113
0.0402271
0.051304
0.0623623
0.0733122
0.0840535
0.0944744
0.104452
0.113851
0.122528
0.130328
0.137093
0.142658
0.146863
0.149549
0.150572
0.149803
0.147137
0.142486
0.135794
0.12713
0.116648
0.10324
0.0850986
-0.0464023
-0.0637942
-0.0764337
-0.0861475
-0.0941084
-0.100258
-0.10461
-0.107284
-0.108403
-0.10809
-0.106463
-0.103641
-0.0997312
-0.0948353
-0.0890449
-0.0824426
-0.0751022
-0.0670896
-0.0584637
-0.0492775
-0.0395798
-0.0294164
-0.0188316
-0.00786954
0.00342366
0.0149988
0.0268017
0.0387717
0.0508398
0.0629273
0.0749443
0.0867883
0.0983432
0.109479
0.120052
0.129903
0.138864
0.146754
0.153387
0.158576
0.162135
0.163889
0.163682
0.161379
0.156868
0.150071
0.14105
0.129963
0.115598
0.095995
-0.0613224
-0.0799004
-0.0933031
-0.10349
-0.111726
-0.117959
-0.122215
-0.124638
-0.125375
-0.12457
-0.122364
-0.118892
-0.114281
-0.108645
-0.102087
-0.0946967
-0.0865548
-0.0777306
-0.0682845
-0.0582697
-0.0477336
-0.0367191
-0.0252672
-0.0134178
-0.00121224
0.0113051
0.0240849
0.0370708
0.0501979
0.0633899
0.0765582
0.0895997
0.102395
0.114809
0.126686
0.137858
0.148135
0.157318
0.165194
0.171546
0.176155
0.178813
0.179326
0.177526
0.173269
0.166448
0.157113
0.145424
0.130055
0.108876
-0.0783804
-0.0982345
-0.112438
-0.123094
-0.131569
-0.13782
-0.141893
-0.143958
-0.144192
-0.142768
-0.139853
-0.135604
-0.130167
-0.123672
-0.116235
-0.107956
-0.0989191
-0.0891987
-0.0788562
-0.0679438
-0.0565066
-0.0445838
-0.0322113
-0.0194236
-0.00625573
0.00725455
0.0210644
0.035124
0.0493739
0.0637425
0.0781445
0.0924776
0.106622
0.120435
0.133757
0.146404
0.158169
0.16883
0.178146
0.185865
0.191733
0.195497
0.196922
0.195795
0.191933
0.185192
0.175605
0.163327
0.146906
0.124028
-0.0978174
-0.119054
-0.134098
-0.145213
-0.153877
-0.160061
-0.163835
-0.165407
-0.164991
-0.162792
-0.15901
-0.15383
-0.14742
-0.13993
-0.131488
-0.122204
-0.11217
-0.101462
-0.0901418
-0.0782605
-0.0658592
-0.0529719
-0.0396282
-0.0258551
-0.0116796
0.00286891
0.0177564
0.0329414
0.0483722
0.0639846
0.0796984
0.0954152
0.111015
0.126355
0.141266
0.155552
0.168991
0.181334
0.192311
0.201632
0.208998
0.214108
0.216674
0.21643
0.21314
0.206615
0.196858
0.184017
0.166499
0.141783
-0.119912
-0.142658
-0.158589
-0.170142
-0.178925
-0.184928
-0.188257
-0.189164
-0.18791
-0.184745
-0.179905
-0.17361
-0.166056
-0.15741
-0.147819
-0.137402
-0.126257
-0.114462
-0.102079
-0.0891563
-0.0757284
-0.061823
-0.0474612
-0.0326608
-0.0174387
-0.00181358
0.0141914
0.0305456
0.047208
0.064124
0.0812218
0.0984092
0.11557
0.132562
0.14921
0.16531
0.180621
0.194871
0.207756
0.218945
0.228088
0.234828
0.238811
0.239706
0.237211
0.231074
0.221262
0.207902
0.189242
0.162533
-0.144991
-0.169403
-0.186271
-0.198229
-0.207033
-0.212704
-0.215394
-0.215417
-0.213092
-0.208723
-0.202595
-0.194966
-0.186062
-0.176077
-0.165172
-0.153478
-0.141098
-0.128112
-0.114578
-0.100539
-0.0860239
-0.0710505
-0.0556294
-0.0397668
-0.0234672
-0.00673626
0.0104164
0.0279738
0.0459083
0.064178
0.082723
0.101461
0.120283
0.13905
0.157587
0.17568
0.193076
0.209477
0.224545
0.237904
0.249148
0.257851
0.263584
0.265933
0.264511
0.258987
0.249271
0.235462
0.215618
0.186738
-0.173442
-0.199714
-0.217574
-0.229882
-0.238572
-0.24371
-0.245511
-0.244369
-0.240679
-0.234813
-0.227115
-0.217888
-0.207397
-0.19586
-0.183456
-0.170326
-0.156577
-0.142287
-0.127512
-0.112285
-0.0966253
-0.0805396
-0.0640255
-0.0470749
-0.0296773
-0.0118224
0.00649627
0.0252783
0.0445128
0.0641742
0.084218
0.104576
0.125151
0.145812
0.166387
0.186659
0.206363
0.225179
0.242735
0.258607
0.272326
0.283387
0.29127
0.29546
0.295462
0.29084
0.281425
0.267266
0.246202
0.214945
-0.205735
-0.23411
-0.253022
-0.265596
-0.273981
-0.278314
-0.278896
-0.276228
-0.270803
-0.263079
-0.253469
-0.242333
-0.229976
-0.216645
-0.202535
-0.187794
-0.172533
-0.156825
-0.140717
-0.124233
-0.107379
-0.0901452
-0.0725145
-0.0544615
-0.0359577
-0.0169745
0.00251398
0.0225271
0.0430742
0.0641496
0.085729
0.107763
0.13017
0.152835
0.175592
0.19823
0.220475
0.241989
0.262369
0.28114
0.297765
0.311651
0.322169
0.328678
0.330549
0.327204
0.318365
0.304003
0.281692
0.247811
-0.242449
-0.273233
-0.293259
-0.305967
-0.313781
-0.316938
-0.315867
-0.311208
-0.303582
-0.293553
-0.28162
-0.268207
-0.253663
-0.238263
-0.222217
-0.20568
-0.188758
-0.171516
-0.15399
-0.136187
-0.118096
-0.0996907
-0.080933
-0.0617776
-0.0421752
-0.0220755
-0.00143036
0.0198027
0.0416565
0.06415
0.0872831
0.11103
0.135334
0.160098
0.185175
0.210362
0.235386
0.259899
0.283468
0.305572
0.3256
0.342861
0.3566
0.366023
0.370326
0.36875
0.360859
0.346506
0.322934
0.286133
-0.284309
-0.317897
-0.339091
-0.351729
-0.358592
-0.360069
-0.356768
-0.349518
-0.339104
-0.326223
-0.311473
-0.295352
-0.278253
-0.260479
-0.242251
-0.223722
-0.204989
-0.186103
-0.167081
-0.147909
-0.128555
-0.108969
-0.0890908
-0.0688508
-0.0481758
-0.0269907
-0.00522215
0.0171988
0.0403323
0.0642259
0.0889088
0.114386
0.140629
0.167569
0.195087
0.222997
0.25104
0.278865
0.306019
0.331939
0.355941
0.377227
0.394896
0.407972
0.415429
0.41627
0.409835
0.395798
0.370978
0.330892
-0.332248
-0.369144
-0.391543
-0.403793
-0.409157
-0.40826
-0.401962
-0.391346
-0.377407
-0.361004
-0.342852
-0.323524
-0.30346
-0.282982
-0.262312
-0.241595
-0.220907
-0.200278
-0.179697
-0.159125
-0.138501
-0.117747
-0.0967751
-0.0754897
-0.0537899
-0.031573
-0.00873703
0.0148162
0.039178
0.0644283
0.0906309
0.117827
0.146025
0.175196
0.205253
0.236047
0.26734
0.298797
0.329958
0.360227
0.388853
0.414929
0.437389
0.45504
0.466583
0.4707
0.466424
0.453152
0.427142
0.383316
-0.387488
-0.428346
-0.451936
-0.463297
-0.466369
-0.462135
-0.451817
-0.436835
-0.418451
-0.397716
-0.375475
-0.352376
-0.328896
-0.305365
-0.281993
-0.258899
-0.236131
-0.213682
-0.191505
-0.169527
-0.147651
-0.125767
-0.103756
-0.0814903
-0.058839
-0.0356691
-0.0118477
0.0127556
0.0382664
0.0648011
0.092463
0.121335
0.151474
0.182894
0.215562
0.249372
0.284133
0.319538
0.355145
0.390344
0.424331
0.45609
0.484385
0.507767
0.5246
0.533149
0.532013
0.520172
0.493113
0.444971
-0.451675
-0.497338
-0.521999
-0.531675
-0.531293
-0.522381
-0.506675
-0.486041
-0.462071
-0.436037
-0.408917
-0.381424
-0.354052
-0.327117
-0.300796
-0.275165
-0.250221
-0.225909
-0.202135
-0.178779
-0.155705
-0.132762
-0.109796
-0.086645
-0.0631445
-0.0391293
-0.0144334
0.0111085
0.0376583
0.0653727
0.0943989
0.124869
0.156891
0.190542
0.225848
0.262772
0.301185
0.340841
0.381338
0.422085
0.462252
0.500734
0.536121
0.566683
0.590373
0.604919
0.608315
0.598912
0.571091
0.517902
-0.527085
-0.578631
-0.604025
-0.61074
-0.605184
-0.589719
-0.566799
-0.53887
-0.507919
-0.475453
-0.442569
-0.410017
-0.378275
-0.347608
-0.31813
-0.289845
-0.26268
-0.236513
-0.211188
-0.18653
-0.162353
-0.138462
-0.114663
-0.0907549
-0.0665402
-0.0418189
-0.0163904
0.00994613
0.0373915
0.0661449
0.096401
0.128346
0.162151
0.197961
0.235882
0.275962
0.318164
0.362333
0.40815
0.455084
0.502325
0.548719
0.592702
0.632253
0.664846
0.687524
0.697452
0.692031
0.664013
0.604854
-0.616967
-0.675741
-0.701091
-0.702777
-0.689484
-0.664838
-0.632281
-0.594984
-0.555375
-0.515186
-0.475586
-0.437306
-0.400749
-0.366081
-0.333308
-0.302328
-0.272969
-0.245021
-0.218256
-0.192428
-0.167294
-0.142612
-0.118141
-0.0936437
-0.0688852
-0.0436309
-0.0176456
0.00930784
0.0374692
0.0670816
0.09839
0.131639
0.167069
0.204905
0.245349
0.288555
0.334608
0.383486
0.435003
0.488751
0.544008
0.599642
0.653998
0.70478
0.748943
0.782686
0.80205
0.803027
0.775893
0.709635
-0.726144
-0.793704
-0.817362
-0.810632
-0.785764
-0.748264
-0.702883
-0.653647
-0.603427
-0.554104
-0.506825
-0.462202
-0.420478
-0.381649
-0.345554
-0.311944
-0.280517
-0.250955
-0.222934
-0.196136
-0.170252
-0.144986
-0.120052
-0.0951733
-0.0700788
-0.0445
-0.0181683
0.00918837
0.0378481
0.0680974
0.100233
0.13456
0.171393
0.211047
0.253833
0.300037
0.349899
0.403573
0.461072
0.522192
0.586404
0.652712
0.719482
0.78424
0.843425
0.892263
0.925327
0.936545
0.912365
0.837754
-0.862096
-0.939901
-0.958486
-0.937752
-0.895559
-0.840112
-0.777791
-0.713526
-0.650515
-0.590618
-0.534784
-0.483352
-0.436284
-0.393305
-0.354024
-0.317994
-0.284753
-0.253848
-0.224851
-0.197359
-0.170996
-0.14541
-0.12027
-0.0952593
-0.0700744
-0.0444152
-0.0179826
0.00952756
0.0384289
0.0690493
0.101735
0.136852
0.174793
0.215969
0.260811
0.309758
0.363237
0.421632
0.485228
0.554129
0.628136
0.706565
0.788007
0.870007
0.948627
1.01808
1.07113
1.09878
1.08153
0.99757
-1.03704
-1.12535
-1.13206
-1.08809
-1.02
-0.939656
-0.855236
-0.772395
-0.694339
-0.62257
-0.557552
-0.49913
-0.446812
-0.399948
-0.357837
-0.319783
-0.285132
-0.253283
-0.223693
-0.195869
-0.169366
-0.143779
-0.118736
-0.0938845
-0.0688913
-0.04343
-0.0171755
0.0102035
0.0390512
0.069732
0.102637
0.138193
0.176863
0.21916
0.265643
0.316917
0.373629
0.43644
0.505986
0.582803
0.667198
0.759046
0.857485
0.960452
1.064
1.16152
1.24381
1.29794
1.2953
1.20249
-1.27218
-1.36673
-1.34792
-1.26557
-1.15902
-1.04458
-0.931911
-0.826755
-0.731636
-0.647128
-0.57278
-0.507642
-0.450579
-0.400435
-0.356124
-0.316663
-0.281184
-0.248928
-0.219233
-0.191522
-0.165286
-0.140073
-0.115474
-0.091109
-0.0666222
-0.0416671
-0.0158998
0.0110312
0.0394935
0.0698806
0.102622
0.138193
0.177128
0.220032
0.26759
0.320584
0.379895
0.446504
0.521474
0.605898
0.7008
0.806934
0.924446
1.0523
1.18727
1.32268
1.44766
1.54453
1.57145
1.47549
-1.60646
-1.68936
-1.61762
-1.47236
-1.30958
-1.14957
-1.00204
-0.871269
-0.75789
-0.660667
-0.577659
-0.506772
-0.446019
-0.393631
-0.348083
-0.308082
-0.272544
-0.240557
-0.211353
-0.184281
-0.15878
-0.134362
-0.110591
-0.0870713
-0.0634324
-0.0393173
-0.0143717
0.0117665
0.0394788
0.0691774
0.101318
0.136415
0.175058
0.21793
0.265833
0.319714
0.380688
0.450076
0.529416
0.620475
0.7252
0.845594
0.98342
1.13959
1.31298
1.49844
1.68504
1.85074
1.93668
1.85819
-2.11188
-2.13089
-1.95256
-1.70585
-1.46296
-1.24451
-1.05634
-0.898327
-0.76723
-0.658838
-0.569064
-0.494324
-0.431627
-0.378531
-0.333067
-0.29365
-0.259005
-0.228094
-0.20007
-0.174228
-0.149978
-0.12681
-0.104279
-0.0819845
-0.059553
-0.0366284
-0.0128573
0.0121227
0.0386946
0.0672762
0.098335
0.132406
0.170112
0.212194
0.25954
0.313232
0.374595
0.445263
0.527258
0.623068
0.735727
0.868835
1.02646
1.2127
1.43056
1.67971
1.95322
2.22851
2.43011
2.42612
-2.91918
-2.74145
-2.36039
-1.95649
-1.6037
-1.31441
-1.08276
-0.899085
-0.753546
-0.63761
-0.544447
-0.468774
-0.406561
-0.354743
-0.310975
-0.27345
-0.240764
-0.211804
-0.185686
-0.161686
-0.139207
-0.117744
-0.096858
-0.0761581
-0.0552836
-0.0338903
-0.0116375
0.0118247
0.0368681
0.0639008
0.0933837
0.125851
0.161932
0.202391
0.248159
0.300401
0.360584
0.430586
0.512836
0.610497
0.727712
0.869898
1.04404
1.25881
1.52424
1.85021
2.24195
2.68551
3.10269
3.31348
-4.32507
-3.56142
-2.81686
-2.19092
-1.70123
-1.33545
-1.06498
-0.863269
-0.710748
-0.593607
-0.502123
-0.429454
-0.370751
-0.322534
-0.282253
-0.248016
-0.218384
-0.19225
-0.168744
-0.147167
-0.126948
-0.107608
-0.0887363
-0.0699671
-0.0509654
-0.031412
-0.0109911
0.0106224
0.0337751
0.0588497
0.0862811
0.116577
0.150345
0.188324
0.231436
0.28085
0.338072
0.405087
0.484547
0.580075
0.696693
0.841481
1.0245
1.26
1.5682
1.97678
2.51553
3.19506
3.99449
4.82501
-7.15939
-4.55992
-3.1409
-2.25487
-1.64788
-1.23759
-0.958592
-0.762714
-0.620624
-0.514649
-0.433615
-0.370225
-0.319593
-0.278351
-0.244105
-0.215114
-0.190075
-0.167998
-0.148108
-0.12979
-0.112542
-0.0959469
-0.0796448
-0.0633183
-0.0466761
-0.0294406
-0.0113364
0.0079194
0.0286303
0.0511322
0.0758081
0.103107
0.133567
0.167849
0.20678
0.251416
0.303136
0.363779
0.435861
0.522911
0.630028
0.764812
0.938898
1.17065
1.49045
1.94855
2.61445
3.57276
5.07791
7.79652
-12.0278
-5.6427
-2.97665
-1.87824
-1.28182
-0.927847
-0.708962
-0.563852
-0.46132
-0.385574
-0.327767
-0.28249
-0.246236
-0.216612
-0.191919
-0.170909
-0.15264
-0.136389
-0.121585
-0.107772
-0.0945754
-0.0816797
-0.0688137
-0.0557358
-0.042223
-0.028062
-0.0130411
0.0030603
0.0204776
0.0394717
0.0603398
0.0834293
0.109155
0.138021
0.170655
0.207852
0.250638
0.300372
0.358896
0.42879
0.513812
0.619711
0.755816
0.938545
1.19987
1.60364
2.26637
3.45968
6.24272
12.7533
)
;

boundaryField
{
    movingWall
    {
        type            zeroGradient;
    }
    fixedWalls
    {
        type            zeroGradient;
    }
    frontAndBack
    {
        type            empty;
    }
}


// ************************************************************************* //
