/*--------------------------------*- C++ -*----------------------------------*\
  =========                 |
  \\      /  F ield         | OpenFOAM: The Open Source CFD Toolbox
   \\    /   O peration     | Website:  https://openfoam.org
    \\  /    A nd           | Version:  7
     \\/     M anipulation  |
\*---------------------------------------------------------------------------*/
FoamFile
{
    version     2.0;
    format      ascii;
    class       volScalarField;
    location    "0.0388";
    object      p;
}
// * * * * * * * * * * * * * * * * * * * * * * * * * * * * * * * * * * * * * //

dimensions      [0 2 -2 0 0 0 0];

internalField   nonuniform List<scalar> 
2500
(
2.00044e-07
-0.000501416
-0.00198906
-0.00415522
-0.0066656
-0.0092296
-0.0116428
-0.013741
-0.0154015
-0.0165367
-0.0170864
-0.0170132
-0.0162984
-0.0149389
-0.0129448
-0.0103375
-0.00714749
-0.00341375
0.000818039
0.00549615
0.0105638
0.0159596
0.0216187
0.0274729
0.0334516
0.0394821
0.0454903
0.0514017
0.0571417
0.0626366
0.0678147
0.072607
0.0769486
0.0807799
0.084048
0.0867081
0.0887254
0.0900764
0.0907513
0.0907562
0.0901149
0.0888726
0.0870986
0.0848912
0.082383
0.0797469
0.0771998
0.0750279
0.0735569
0.0730866
0.000509468
7.46835e-06
-0.00120007
-0.00290863
-0.00486939
-0.00688144
-0.00877828
-0.0104229
-0.0117079
-0.0125522
-0.0128977
-0.0127059
-0.011955
-0.0106379
-0.0087594
-0.00633539
-0.00339071
4.18507e-05
0.00392264
0.00820609
0.0128416
0.017774
0.0229446
0.0282917
0.0337509
0.0392561
0.04474
0.0501348
0.0553729
0.0603879
0.0651153
0.0694937
0.0734656
0.0769789
0.079988
0.0824552
0.0843522
0.0856615
0.0863786
0.0865131
0.0860912
0.0851578
0.0837786
0.0820429
0.0800665
0.0779937
0.0759964
0.0742734
0.0730822
0.0726167
0.00200453
0.00121722
1.43792e-06
-0.00154095
-0.00325414
-0.00498339
-0.00659443
-0.00797453
-0.00903197
-0.00969521
-0.00991135
-0.00964411
-0.00887197
-0.00758634
-0.00578996
-0.0034955
-0.00072431
0.00249472
0.00612609
0.0101286
0.0144559
0.0190576
0.0238796
0.0288648
0.0339535
0.0390846
0.0441956
0.0492239
0.0541068
0.058783
0.0631934
0.0672815
0.070995
0.0742868
0.077116
0.0794491
0.0812619
0.0825401
0.0832814
0.0834964
0.0832107
0.0824662
0.0813226
0.0798589
0.0781744
0.0763885
0.0746404
0.0730862
0.0718863
0.0711538
0.00419698
0.00294267
0.00152623
-4.28631e-05
-0.00169665
-0.00331372
-0.00478599
-0.00602288
-0.00694864
-0.00750264
-0.00763911
-0.00732614
-0.00654444
-0.00528606
-0.00355324
-0.00135722
0.00128272
0.00434023
0.00778273
0.0115722
0.0156657
0.0200163
0.0245736
0.0292841
0.034092
0.0389401
0.0437696
0.0485219
0.0531381
0.057561
0.0617351
0.0656077
0.0691301
0.0722585
0.074955
0.0771891
0.0789383
0.0801899
0.0809419
0.0812042
0.0809998
0.0803661
0.0793553
0.0780354
0.0764895
0.0748152
0.0731261
0.0715467
0.0701521
0.0689627
0.00678723
0.00495641
0.00323992
0.00153987
-0.000158307
-0.00175952
-0.00317777
-0.00434281
-0.00519436
-0.005683
-0.00577094
-0.00543166
-0.00464921
-0.00341741
-0.00173901
0.00037517
0.00290704
0.005832
0.00911963
0.0127344
0.0166362
0.0207809
0.0251213
0.0296069
0.0341854
0.0388025
0.043403
0.0479312
0.0523318
0.0565505
0.0605347
0.0642349
0.0676048
0.0706032
0.0731942
0.0753488
0.0770456
0.0782721
0.0790257
0.0793143
0.0791575
0.0785873
0.0776478
0.076396
0.0749
0.0732376
0.071501
0.0697897
0.0680999
0.0663471
0.00952941
0.00708436
0.0050074
0.00310272
0.00128209
-0.000379066
-0.00181251
-0.0029657
-0.0037925
-0.00425426
-0.00432128
-0.0039729
-0.00319722
-0.00199059
-0.000357085
0.00169211
0.00413931
0.0069609
0.010128
0.0136068
0.0173594
0.0213442
0.0255161
0.0298274
0.0342283
0.0386674
0.0430918
0.0474486
0.0516849
0.0557489
0.0595902
0.0631612
0.0664176
0.0693196
0.0718325
0.0739277
0.0755841
0.0767885
0.0775365
0.0778336
0.0776952
0.0771473
0.0762266
0.0749795
0.0734605
0.0717307
0.0698655
0.0679462
0.0658977
0.0635402
0.0122496
0.00918259
0.00671037
0.0045499
0.00254897
0.000769278
-0.00073455
-0.00192488
-0.00276798
-0.00323507
-0.00330423
-0.00296078
-0.0021972
-0.00101287
0.000586183
0.00258779
0.00497399
0.00772156
0.0108024
0.0141841
0.0178301
0.0217005
0.0257523
0.0299398
0.034215
0.0385286
0.0428299
0.0470677
0.0511911
0.0551497
0.0588948
0.0623801
0.0655621
0.0684017
0.0708643
0.0729214
0.0745509
0.0757381
0.0764765
0.0767682
0.0766243
0.0760649
0.0751193
0.0738247
0.0722242
0.0703649
0.06831
0.0661285
0.0636839
0.0607117
0.014813
0.0111316
0.00824665
0.00579734
0.00357597
0.00163534
2.00153e-05
-0.00124463
-0.0021355
-0.00263259
-0.00272123
-0.00239255
-0.00164351
-0.000476834
0.00109915
0.00307076
0.0054193
0.00812135
0.0111491
0.0144709
0.0180511
0.021851
0.025829
0.0299407
0.0341399
0.0383784
0.0426072
0.0467763
0.0508358
0.0547366
0.0584307
0.0618721
0.0650179
0.0678285
0.070269
0.0723099
0.0739275
0.0751052
0.0758335
0.0761109
0.0759441
0.0753477
0.0743439
0.0729621
0.0712357
0.069201
0.0669126
0.0644324
0.061571
0.0579889
0.0171166
0.0128335
0.00952758
0.00676827
0.00429895
0.00216723
0.000410488
-0.000955825
-0.00191759
-0.00246252
-0.00258253
-0.00227425
-0.00153906
-0.000383155
0.00118254
0.00314253
0.00547695
0.00816174
0.011169
0.0144671
0.0180212
0.0217931
0.0257421
0.0298248
0.0339959
0.0382082
0.0424135
0.0465626
0.0506063
0.0544956
0.0581828
0.0616219
0.0647692
0.0675846
0.070032
0.07208
0.073703
0.0748817
0.0756035
0.075863
0.0756623
0.0750106
0.0739242
0.0724256
0.0705405
0.0682966
0.0657434
0.0629395
0.0596494
0.0554661
0.0190802
0.0142065
0.0104756
0.0073923
0.004656
0.00231183
0.000392315
-0.00109513
-0.00214394
-0.00274853
-0.00290677
-0.00262042
-0.00189517
-0.000740704
0.000829306
0.00279728
0.00514185
0.00783801
0.0108573
0.0141679
0.0177349
0.0215207
0.0254847
0.0295842
0.0337743
0.0380084
0.0422385
0.0464157
0.0504909
0.0544149
0.0581394
0.0616178
0.0648053
0.0676603
0.0701449
0.0722256
0.0738741
0.0750679
0.0757909
0.0760337
0.0757938
0.0750755
0.0738897
0.0722529
0.0701848
0.0677069
0.0648656
0.0617196
0.0579922
0.0532142
0.0206386
0.0151808
0.0110215
0.00760423
0.00458746
0.00201583
-8.12546e-05
-0.00170293
-0.00284901
-0.00351979
-0.00371851
-0.00345172
-0.00272924
-0.00156425
2.67136e-05
0.0020238
0.00440391
0.00714075
0.010205
0.0135642
0.0171834
0.0210245
0.0250474
0.0292091
0.033465
0.0377684
0.0420713
0.0463246
0.0504786
0.0544836
0.0582902
0.0618504
0.0651179
0.0680491
0.0706036
0.0727452
0.0744423
0.0756691
0.0764054
0.0766377
0.0763589
0.0755687
0.0742729
0.0724835
0.0702149
0.0674842
0.0643369
0.060834
0.0566604
0.0512883
0.0217351
0.015694
0.0111018
0.00734232
0.00403504
0.00122542
-0.00105903
-0.00282288
-0.00407148
-0.00481031
-0.00504753
-0.00479419
-0.00406411
-0.00287394
-0.00124317
0.00080595
0.00324834
0.0060562
0.00919901
0.0126436
0.0163542
0.0202925
0.0244179
0.0286872
0.0330556
0.037476
0.0418999
0.0462776
0.0505584
0.0546915
0.058626
0.0623121
0.0657013
0.0687474
0.0714071
0.0736408
0.0754134
0.076695
0.0774613
0.0776942
0.0773822
0.0765203
0.07511
0.0731588
0.0706775
0.0676796
0.0642115
0.0603379
0.0557074
0.0497342
0.0223179
0.0156877
0.0106559
0.00654649
0.00294067
-0.000114369
-0.00259216
-0.00450199
-0.00585411
-0.00665872
-0.00692857
-0.00667902
-0.00592781
-0.00469506
-0.00300325
-0.000877232
0.00165581
0.00456632
0.0078224
0.0113898
0.0152318
0.0193094
0.0235814
0.0280042
0.0325321
0.0371176
0.0417113
0.0462624
0.050719
0.0550286
0.0591385
0.0629964
0.0665514
0.0697539
0.0725572
0.074918
0.076797
0.0781597
0.0789773
0.079227
0.0788926
0.0779645
0.07644
0.0743229
0.0716206
0.0683443
0.0645422
0.060284
0.0551824
0.048593
0.0223365
0.0151052
0.00962396
0.0051566
0.00124529
-0.00206044
-0.00473459
-0.00679074
-0.00824368
-0.00910808
-0.00940109
-0.00914226
-0.00835325
-0.00705769
-0.00528117
-0.00305123
-0.000397357
0.00264896
0.00605423
0.00978284
0.0137971
0.018057
0.0225204
0.027143
0.0318784
0.0366778
0.041491
0.0462656
0.0509484
0.0554846
0.0598194
0.0638977
0.0676652
0.071069
0.0740582
0.0765851
0.0786057
0.0800807
0.080976
0.0812639
0.0809231
0.0799393
0.0783058
0.0760227
0.0730946
0.0695308
0.0653823
0.0607246
0.0551336
0.0479044
0.0217392
0.0138883
0.00794523
0.00311091
-0.00111238
-0.00467246
-0.00754359
-0.00974342
-0.0112912
-0.0122059
-0.0125091
-0.0122246
-0.011378
-0.00999652
-0.00810899
-0.0057458
-0.00293891
0.000278101
0.00386996
0.00779957
0.0120279
0.016514
0.0212146
0.0260843
0.0310758
0.0361392
0.0412227
0.0462727
0.0512337
0.0560489
0.0606606
0.0650105
0.0690408
0.0726944
0.0759159
0.0786526
0.0808551
0.0824787
0.0834836
0.0838365
0.0835107
0.0824871
0.0807542
0.0783091
0.0751534
0.0712949
0.0667876
0.0617139
0.0556108
0.0477104
0.020471
0.0119765
0.00555591
0.000344617
-0.00419692
-0.0080138
-0.0110804
-0.0134186
-0.015052
-0.0160043
-0.0163014
-0.0159714
-0.0150441
-0.0135506
-0.011523
-0.00899474
-0.00600045
-0.00257594
0.00124158
0.00541338
0.00989905
0.0146563
0.0196408
0.0248062
0.0301036
0.0354822
0.0408886
0.0462673
0.0515608
0.0567096
0.061653
0.0663293
0.0706764
0.0746327
0.0781376
0.0811329
0.0835632
0.0853774
0.0865298
0.0869805
0.0866969
0.0856544
0.083837
0.0812377
0.0778555
0.0736965
0.0688183
0.0633102
0.0566684
0.0480569
0.0184717
0.00930438
0.00238786
-0.0032115
-0.00807745
-0.0121524
-0.0154109
-0.0178794
-0.0195863
-0.0205599
-0.020831
-0.0204323
-0.019398
-0.017763
-0.0155633
-0.0128356
-0.0096171
-0.00594618
-0.00186207
0.00259474
0.00738234
0.0124571
0.0177736
0.0232841
0.0289388
0.0346853
0.0404686
0.0462314
0.0519138
0.0574537
0.0627869
0.0678479
0.0725701
0.0768867
0.0807315
0.0840398
0.0867498
0.0888034
0.0901474
0.0907352
0.0905273
0.089493
0.0876109
0.0848697
0.0812652
0.0768017
0.0715403
0.065578
0.0583664
0.0489967
0.0156748
0.00580045
-0.00163293
-0.00763235
-0.0128287
-0.0171617
-0.0206065
-0.0231945
-0.0249594
-0.0259346
-0.026156
-0.0256616
-0.0244901
-0.0226809
-0.0202739
-0.0173092
-0.0138271
-0.00986857
-0.00547492
-0.000688511
0.0044472
0.0098873
0.0155851
0.0214918
0.0275562
0.0337247
0.0399408
0.0461451
0.0522754
0.0582666
0.0640512
0.0695592
0.0747194
0.0794592
0.083706
0.0873884
0.0904368
0.0927853
0.0943727
0.0951442
0.0950527
0.0940601
0.0921389
0.0892729
0.085454
0.080684
0.0750277
0.0685898
0.0607736
0.0505911
0.0120059
0.00138588
-0.00658761
-0.0129998
-0.018532
-0.0231216
-0.0267447
-0.0294383
-0.0312419
-0.0321949
-0.032339
-0.0317176
-0.0303749
-0.0283549
-0.0257018
-0.0224594
-0.0186715
-0.0143815
-0.00963315
-0.00447064
0.00106104
0.00691568
0.0130455
0.0194005
0.0259287
0.032575
0.0392814
0.0459867
0.0526264
0.0591323
0.0654333
0.0714551
0.077121
0.0823524
0.08707
0.0911942
0.0946474
0.0973544
0.099245
0.100255
0.100328
0.0994188
0.0974911
0.0945231
0.0905018
0.085426
0.0793639
0.072428
0.0639688
0.0529122
0.00738147
-0.00402696
-0.0125659
-0.019404
-0.0252767
-0.0301194
-0.0339099
-0.0366915
-0.0385106
-0.0394131
-0.0394474
-0.0386632
-0.0371104
-0.0348386
-0.0318966
-0.0283324
-0.024193
-0.019525
-0.0143744
-0.00878727
-0.00281004
0.00350987
0.0101237
0.0169807
0.0240278
0.031209
0.038465
0.0457329
0.0529458
0.0600328
0.066919
0.0735257
0.0797704
0.0855681
0.0908318
0.0954735
0.099406
0.102544
0.104807
0.10612
0.106416
0.105639
0.103745
0.100705
0.0964984
0.091121
0.0846437
0.0771869
0.0680432
0.0560445
0.00170789
-0.0105358
-0.0196672
-0.0269445
-0.0331611
-0.0382512
-0.0421945
-0.0450422
-0.0468483
-0.0476667
-0.0475532
-0.0465647
-0.044758
-0.0421884
-0.0389101
-0.0349756
-0.0304358
-0.0253401
-0.019737
-0.0136745
-0.00720032
-0.000362909
0.00678824
0.0142018
0.0218242
0.0295987
0.037465
0.0453588
0.0532113
0.0609488
0.0684927
0.0757598
0.0826618
0.0891068
0.0949994
0.100242
0.104738
0.10839
0.111105
0.112795
0.113382
0.112798
0.110988
0.107912
0.103545
0.0978747
0.0909753
0.0829749
0.0731023
0.0600872
-0.00512013
-0.01825
-0.0280026
-0.035732
-0.0422941
-0.0476222
-0.0516995
-0.0545858
-0.0563446
-0.0570387
-0.0567329
-0.0554924
-0.0533814
-0.0504623
-0.0467951
-0.0424372
-0.0374437
-0.0318671
-0.0257585
-0.0191676
-0.0121433
-0.00473469
0.00300823
0.011034
0.0192889
0.027716
0.0362545
0.0448391
0.0533994
0.0618594
0.0701371
0.0781446
0.085788
0.0929679
0.0995802
0.105517
0.11067
0.114929
0.118187
0.120342
0.121301
0.120981
0.119315
0.116252
0.111756
0.105807
0.0984824
0.0899166
0.0792686
0.0651563
-0.0132208
-0.0272919
-0.037696
-0.0458894
-0.052796
-0.0583488
-0.0625354
-0.0654263
-0.067096
-0.0676179
-0.0670673
-0.065519
-0.0630462
-0.059719
-0.055604
-0.0507643
-0.0452591
-0.0391447
-0.0324744
-0.0252995
-0.01767
-0.00963526
-0.00124521
0.00744908
0.0163942
0.0255338
0.034807
0.0441483
0.0534864
0.0627432
0.0718339
0.0806662
0.0891403
0.0971494
0.10458
0.111314
0.117229
0.1222
0.126106
0.128826
0.130252
0.130283
0.128835
0.125844
0.12126
0.115056
0.107307
0.0981557
0.0866839
0.0713873
-0.0227267
-0.0377989
-0.0488862
-0.0575546
-0.0648011
-0.0705596
-0.0748238
-0.0776767
-0.0792062
-0.0794983
-0.0786407
-0.0767197
-0.0738187
-0.0700166
-0.0653878
-0.0600013
-0.0539213
-0.0472076
-0.0399159
-0.032099
-0.0238073
-0.0150903
-0.00599714
0.00342214
0.0131154
0.0230271
0.0330978
0.0432623
0.0534489
0.0635786
0.0735641
0.0833093
0.0927088
0.101648
0.110005
0.117648
0.124441
0.130244
0.134917
0.13832
0.140323
0.140807
0.139667
0.136821
0.132205
0.125777
0.117612
0.107858
0.0955122
0.0789379
-0.0337869
-0.0499259
-0.0617294
-0.0708817
-0.0784589
-0.0843972
-0.0886979
-0.0914597
-0.0927863
-0.0927792
-0.0915405
-0.0891703
-0.0857639
-0.0814106
-0.0761933
-0.0701879
-0.0634638
-0.0560844
-0.0481079
-0.0395881
-0.0305757
-0.0211193
-0.0112667
-0.00106616
0.0094323
0.0201754
0.0311056
0.0421591
0.0532653
0.0643448
0.0753089
0.0860583
0.0964826
0.10646
0.115858
0.124534
0.132335
0.139103
0.144678
0.148899
0.15161
0.152668
0.151945
0.149336
0.144757
0.138149
0.129583
0.119214
0.105944
0.0879914
-0.0465692
-0.0638477
-0.0764024
-0.0860448
-0.0939373
-0.10002
-0.104304
-0.106908
-0.107955
-0.107564
-0.105856
-0.102946
-0.0989443
-0.0939519
-0.0880614
-0.0813564
-0.0739118
-0.065795
-0.0570661
-0.0477799
-0.0379864
-0.0277328
-0.0170647
-0.00602746
0.00533211
0.0169641
0.0288141
0.0408213
0.052917
0.0650231
0.0770504
0.0888977
0.10045
0.11158
0.122143
0.131985
0.140936
0.14882
0.155452
0.160645
0.164217
0.165994
0.165818
0.163559
0.159104
0.152376
0.143437
0.132445
0.1182
0.0987605
-0.0612633
-0.0797629
-0.0931059
-0.103241
-0.111425
-0.117604
-0.121805
-0.124167
-0.124838
-0.123961
-0.121676
-0.118119
-0.113417
-0.107684
-0.101024
-0.0935283
-0.085279
-0.0763468
-0.0667937
-0.0566745
-0.0460382
-0.0349296
-0.0233907
-0.0114629
0.000811359
0.0133871
0.0262145
0.0392372
0.0523903
0.0655983
0.0787732
0.0918131
0.1046
0.117
0.128861
0.140013
0.150272
0.159438
0.167302
0.173646
0.178256
0.180922
0.181452
0.17968
0.175462
0.168692
0.159421
0.147807
0.132536
0.111493
-0.0780847
-0.0978988
-0.11207
-0.122695
-0.131136
-0.137349
-0.141378
-0.143392
-0.143569
-0.142078
-0.139088
-0.134757
-0.12923
-0.122638
-0.115098
-0.106711
-0.0975636
-0.0877313
-0.0772775
-0.0662563
-0.0547144
-0.0426931
-0.0302298
-0.0173604
-0.00412109
0.00944936
0.0233077
0.0374037
0.0516782
0.0660602
0.080465
0.0947918
0.108921
0.122715
0.136012
0.14863
0.160368
0.171001
0.180293
0.187993
0.193847
0.197605
0.199032
0.197917
0.194076
0.187368
0.177823
0.165598
0.14925
0.126475
-0.0972799
-0.118518
-0.133559
-0.144665
-0.153314
-0.159476
-0.163219
-0.164752
-0.164286
-0.162027
-0.158176
-0.152917
-0.146419
-0.138831
-0.130285
-0.120891
-0.110744
-0.0999198
-0.0884841
-0.0764893
-0.0639787
-0.0509883
-0.0375495
-0.023691
-0.00944124
0.00516953
0.0201065
0.0353278
0.0507821
0.0664054
0.0821185
0.0978242
0.113404
0.128717
0.143595
0.157844
0.171245
0.183551
0.194492
0.203781
0.211121
0.216211
0.218763
0.218514
0.215227
0.208713
0.198977
0.186166
0.168692
0.144044
-0.119134
-0.141925
-0.157884
-0.169451
-0.178239
-0.184236
-0.187548
-0.188427
-0.187133
-0.183916
-0.179012
-0.172642
-0.165001
-0.15626
-0.146563
-0.136034
-0.124772
-0.112858
-0.100355
-0.0873137
-0.0737714
-0.0597579
-0.0452965
-0.0304067
-0.0151071
0.000582617
0.0166383
0.0330291
0.049714
0.0666387
0.0837325
0.100904
0.11804
0.134997
0.151606
0.16766
0.182924
0.197127
0.209965
0.22111
0.230214
0.236919
0.240873
0.241746
0.239234
0.233088
0.223273
0.209918
0.191273
0.164593
-0.143981
-0.168482
-0.185408
-0.197404
-0.206233
-0.211917
-0.214605
-0.214612
-0.212257
-0.207844
-0.201658
-0.193958
-0.184971
-0.17489
-0.16388
-0.152072
-0.139572
-0.126462
-0.112803
-0.0986409
-0.0840058
-0.0689189
-0.0533932
-0.0374368
-0.0210561
-0.00425783
0.0129472
0.0305417
0.0484979
0.0667745
0.0853124
0.104031
0.122822
0.141549
0.160038
0.178079
0.195418
0.211762
0.226774
0.240078
0.25127
0.259925
0.265614
0.267923
0.266465
0.260911
0.251168
0.237337
0.217476
0.188585
-0.172217
-0.198621
-0.21657
-0.22894
-0.237675
-0.242842
-0.244656
-0.243511
-0.239802
-0.233901
-0.226152
-0.21686
-0.206288
-0.194658
-0.182148
-0.168902
-0.15503
-0.140612
-0.125706
-0.11035
-0.0945647
-0.0783598
-0.0617355
-0.0446863
-0.0272033
-0.00927798
0.00909512
0.0279151
0.0471709
0.0668376
0.0868715
0.107206
0.127745
0.14836
0.16888
0.189092
0.208732
0.227483
0.244973
0.26078
0.274435
0.285436
0.293261
0.297395
0.297343
0.292669
0.283203
0.268996
0.247883
0.216572
-0.204318
-0.232866
-0.251897
-0.264555
-0.273006
-0.277385
-0.277996
-0.275338
-0.269906
-0.262156
-0.252503
-0.241308
-0.228874
-0.21545
-0.201234
-0.186376
-0.170988
-0.155147
-0.138903
-0.122284
-0.105297
-0.087938
-0.0701911
-0.0520339
-0.0334402
-0.014383
0.00516249
0.0252149
0.0457833
0.0668628
0.0884298
0.110436
0.132804
0.155416
0.178113
0.200684
0.222857
0.244298
0.264603
0.283301
0.299853
0.313666
0.324113
0.330552
0.332351
0.328934
0.320022
0.305585
0.283192
0.249215
-0.24087
-0.271868
-0.292039
-0.304853
-0.312752
-0.315972
-0.314945
-0.31031
-0.302689
-0.292646
-0.280678
-0.267211
-0.252594
-0.237103
-0.220951
-0.204294
-0.18724
-0.169861
-0.152192
-0.134247
-0.116017
-0.0974791
-0.0785985
-0.0593329
-0.0396354
-0.0194575
0.00124762
0.0225216
0.0443974
0.0668941
0.0900128
0.113729
0.137989
0.162696
0.187707
0.21282
0.237766
0.262198
0.285686
0.307708
0.327655
0.344834
0.358491
0.36783
0.372047
0.37038
0.362393
0.34794
0.324254
0.287314
-0.282607
-0.316443
-0.337808
-0.350572
-0.357537
-0.359094
-0.355853
-0.348641
-0.338245
-0.325359
-0.310584
-0.294415
-0.277247
-0.259384
-0.241048
-0.222396
-0.203528
-0.184498
-0.165327
-0.146005
-0.126504
-0.106778
-0.0867692
-0.0664123
-0.0456363
-0.0243682
-0.00253598
0.0199283
0.0430848
0.0669813
0.0916481
0.117092
0.143286
0.170165
0.197611
0.225443
0.253401
0.281139
0.308205
0.334037
0.357951
0.379148
0.396726
0.409708
0.417066
0.417799
0.411248
0.397087
0.372123
0.331857
-0.330469
-0.367642
-0.390233
-0.402625
-0.408109
-0.407307
-0.401085
-0.390521
-0.376612
-0.360216
-0.342047
-0.322678
-0.302548
-0.281981
-0.261203
-0.240359
-0.219531
-0.198751
-0.178014
-0.157283
-0.136503
-0.115601
-0.0944906
-0.0730809
-0.0512735
-0.028968
-0.00606407
0.0175355
0.0419219
0.0671754
0.093361
0.120521
0.148668
0.177773
0.207754
0.238463
0.269667
0.301031
0.332098
0.362273
0.390807
0.416788
0.439151
0.4567
0.468133
0.472129
0.46772
0.454302
0.428121
0.384075
-0.385682
-0.42684
-0.450638
-0.462155
-0.465362
-0.461238
-0.45101
-0.436095
-0.417754
-0.397037
-0.374787
-0.351653
-0.32811
-0.304491
-0.281008
-0.257784
-0.234869
-0.212261
-0.189919
-0.167774
-0.145733
-0.123691
-0.101533
-0.0791341
-0.0563678
-0.033103
-0.00920859
0.015445
0.0409828
0.0675219
0.0951665
0.124002
0.154085
0.185436
0.218023
0.251744
0.28641
0.321718
0.357226
0.392327
0.426216
0.457878
0.486071
0.509347
0.526063
0.53448
0.533198
0.521194
0.493938
0.445541
-0.449897
-0.495873
-0.520754
-0.530598
-0.530363
-0.521576
-0.505974
-0.485421
-0.461507
-0.435501
-0.40838
-0.380856
-0.353424
-0.3264
-0.299965
-0.274197
-0.249099
-0.224621
-0.200672
-0.177139
-0.15389
-0.130779
-0.107656
-0.0843631
-0.0607394
-0.036622
-0.0118468
0.0137502
0.0403306
0.0680515
0.097061
0.127493
0.159459
0.193037
0.228259
0.265088
0.303402
0.342955
0.38335
0.423995
0.464061
0.502443
0.537727
0.568179
0.591749
0.606157
0.609397
0.599817
0.57178
0.518305
-0.525392
-0.577256
-0.602875
-0.609767
-0.604368
-0.589041
-0.566239
-0.538405
-0.507521
-0.475093
-0.442215
-0.409636
-0.377833
-0.347076
-0.31748
-0.289052
-0.261725
-0.235381
-0.209872
-0.185026
-0.160663
-0.136593
-0.112626
-0.0885666
-0.0642194
-0.0393875
-0.0138724
0.0125255
0.0400063
0.0687696
0.0990112
0.130919
0.164666
0.200402
0.238235
0.278217
0.320315
0.364376
0.410086
0.456915
0.504052
0.550344
0.594224
0.633665
0.666137
0.688676
0.698442
0.692835
0.664585
0.605116
-0.615417
-0.674503
-0.700078
-0.701945
-0.688818
-0.664322
-0.631896
-0.594705
-0.555174
-0.515031
-0.475442
-0.437137
-0.400519
-0.365758
-0.332861
-0.30173
-0.272201
-0.244068
-0.217106
-0.191078
-0.165747
-0.140875
-0.116225
-0.0915651
-0.0666637
-0.0412891
-0.0152084
0.011814
0.0400173
0.0696448
0.100942
0.134157
0.16953
0.20729
0.247643
0.290748
0.336693
0.385458
0.436864
0.490502
0.545653
0.601184
0.655436
0.706111
0.750154
0.78376
0.802962
0.80375
0.776375
0.70979
-0.724791
-0.792648
-0.816525
-0.809977
-0.785282
-0.747942
-0.702703
-0.653584
-0.60345
-0.554179
-0.506914
-0.462267
-0.420481
-0.381553
-0.345328
-0.311559
-0.279953
-0.250194
-0.221966
-0.194957
-0.168863
-0.143395
-0.11827
-0.0932169
-0.0679677
-0.0422575
-0.01582
0.0116152
0.0403254
0.0705972
0.102728
0.137024
0.173803
0.213383
0.256078
0.302178
0.351927
0.405484
0.462866
0.523872
0.587974
0.654176
0.720842
0.785494
0.844565
0.89327
0.926177
0.937207
0.912784
0.837838
-0.86099
-0.939065
-0.957857
-0.937305
-0.89529
-0.840011
-0.77784
-0.713701
-0.650783
-0.590942
-0.535123
-0.483667
-0.436532
-0.393449
-0.354031
-0.317834
-0.284403
-0.253291
-0.224077
-0.196362
-0.169777
-0.143975
-0.118631
-0.093433
-0.0680805
-0.0422771
-0.0157263
0.0118742
0.0408369
0.0714895
0.104178
0.139272
0.177164
0.218268
0.26302
0.311863
0.365227
0.423501
0.486974
0.555755
0.629646
0.707965
0.789302
0.871198
0.949707
1.01903
1.07193
1.0994
1.08192
0.997623
-1.03622
-1.12477
-1.13166
-1.08787
-1.01996
-0.939794
-0.855532
-0.772823
-0.694864
-0.623154
-0.55815
-0.4997
-0.447312
-0.400339
-0.358083
-0.319854
-0.285004
-0.252938
-0.223119
-0.19506
-0.168322
-0.142507
-0.117246
-0.0921923
-0.0670168
-0.0413965
-0.0150092
0.0124743
0.0413969
0.0721225
0.105043
0.140584
0.179214
0.221446
0.267842
0.319013
0.375609
0.438295
0.507713
0.584403
0.668675
0.760407
0.858735
0.961597
1.06503
1.16244
1.24459
1.29855
1.29568
1.20256
-1.27167
-1.36642
-1.34777
-1.2656
-1.15923
-1.04496
-0.932461
-0.82744
-0.732421
-0.647972
-0.573637
-0.508469
-0.451331
-0.401073
-0.356611
-0.316968
-0.281281
-0.248798
-0.218863
-0.190905
-0.164422
-0.138966
-0.114134
-0.0895508
-0.0648651
-0.0397341
-0.0138168
0.0132357
0.0417895
0.0722372
0.105008
0.140579
0.179484
0.222332
0.269811
0.322706
0.381902
0.448385
0.523221
0.607511
0.702281
0.808289
0.925683
1.05342
1.18829
1.32358
1.44844
1.54515
1.57187
1.47561
-1.60627
-1.68932
-1.61773
-1.47263
-1.31003
-1.1502
-1.00283
-0.872206
-0.758928
-0.661764
-0.578769
-0.50785
-0.44702
-0.394514
-0.34881
-0.308621
-0.272868
-0.240645
-0.21119
-0.183859
-0.158097
-0.13342
-0.109399
-0.0856437
-0.061787
-0.0374763
-0.0123609
0.013919
0.0417426
0.0715211
0.10371
0.138823
0.177451
0.22028
0.268114
0.321902
0.382766
0.452027
0.531232
0.622149
0.726733
0.846989
0.984685
1.14074
1.31401
1.49936
1.68584
1.8514
1.93716
1.85841
-2.11199
-2.13111
-1.95291
-1.70635
-1.46364
-1.24537
-1.05737
-0.899501
-0.768508
-0.660178
-0.570419
-0.495648
-0.432874
-0.379658
-0.334035
-0.294426
-0.259559
-0.228403
-0.200117
-0.174003
-0.149475
-0.126032
-0.103232
-0.080681
-0.05801
-0.0348672
-0.0109029
0.0142421
0.0409485
0.0696327
0.100761
0.134868
0.172578
0.214633
0.261924
0.315533
0.376792
0.447337
0.529195
0.624859
0.737367
0.870325
1.0278
1.21391
1.43164
1.68067
1.95407
2.22923
2.43068
2.42647
-2.91955
-2.74188
-2.36094
-1.9572
-1.60457
-1.31548
-1.084
-0.900474
-0.755047
-0.63918
-0.546038
-0.470338
-0.408052
-0.356116
-0.312188
-0.274467
-0.241552
-0.212338
-0.185946
-0.161658
-0.138885
-0.117126
-0.0959495
-0.0749695
-0.0538305
-0.0321931
-0.00972072
0.0139331
0.0391375
0.0662984
0.0958754
0.128402
0.164509
0.204959
0.250687
0.30286
0.362947
0.432832
0.514946
0.612457
0.729514
0.871537
1.04551
1.26013
1.52541
1.85125
2.24287
2.68631
3.10337
3.314
-4.32565
-3.56202
-2.81756
-2.19178
-1.70227
-1.33668
-1.06641
-0.864854
-0.712458
-0.595399
-0.503949
-0.431263
-0.372494
-0.324161
-0.283721
-0.249283
-0.219416
-0.193017
-0.169222
-0.147339
-0.126805
-0.107146
-0.0879586
-0.0688822
-0.0495876
-0.0297608
-0.00909054
0.0127443
0.0360872
0.0613182
0.0888707
0.119251
0.153067
0.191058
0.234148
0.283507
0.340645
0.407549
0.486876
0.582252
0.698705
0.84332
1.02616
1.26149
1.56952
1.97794
2.51655
3.19596
3.99528
4.82568
-7.16008
-4.56061
-3.14169
-2.25583
-1.64905
-1.23897
-0.960193
-0.764505
-0.622567
-0.516697
-0.435716
-0.372324
-0.321636
-0.280283
-0.245876
-0.216677
-0.191391
-0.169032
-0.148833
-0.130185
-0.112594
-0.0956493
-0.0789981
-0.0623295
-0.0453585
-0.0278132
-0.00942316
0.0100898
0.0310257
0.0537173
0.0785455
0.105958
0.136492
0.170808
0.209736
0.254332
0.305978
0.366518
0.438469
0.525364
0.632309
0.766907
0.940798
1.17236
1.49195
1.94987
2.61561
3.57377
5.07881
7.79734
-12.0284
-5.6434
-2.97746
-1.87926
-1.28309
-0.929389
-0.710773
-0.565903
-0.463569
-0.387967
-0.330243
-0.284985
-0.248686
-0.218956
-0.194097
-0.172867
-0.15433
-0.137771
-0.122626
-0.108446
-0.0948647
-0.081575
-0.068313
-0.0548445
-0.0409536
-0.0264335
-0.0110781
0.00532778
0.0230152
0.0422413
0.0633007
0.0865388
0.112369
0.141296
0.173948
0.211122
0.253845
0.303481
0.361873
0.431607
0.516444
0.62214
0.758027
0.940527
1.20162
1.60516
2.26768
3.46079
6.24369
12.7542
)
;

boundaryField
{
    movingWall
    {
        type            zeroGradient;
    }
    fixedWalls
    {
        type            zeroGradient;
    }
    frontAndBack
    {
        type            empty;
    }
}


// ************************************************************************* //
