/*--------------------------------*- C++ -*----------------------------------*\
  =========                 |
  \\      /  F ield         | OpenFOAM: The Open Source CFD Toolbox
   \\    /   O peration     | Website:  https://openfoam.org
    \\  /    A nd           | Version:  7
     \\/     M anipulation  |
\*---------------------------------------------------------------------------*/
FoamFile
{
    version     2.0;
    format      ascii;
    class       surfaceScalarField;
    location    "0.0388";
    object      phi;
}
// * * * * * * * * * * * * * * * * * * * * * * * * * * * * * * * * * * * * * //

dimensions      [0 3 -1 0 0 0 0];

internalField   nonuniform List<scalar> 
4900
(
9.76963e-10
-9.77067e-10
1.89426e-09
-9.17282e-10
1.78628e-09
1.0796e-10
3.41649e-10
1.44465e-09
-2.48418e-09
2.82584e-09
-6.60411e-09
4.11992e-09
-1.1863e-08
5.25892e-09
-1.80793e-08
6.21626e-09
-2.50635e-08
6.9842e-09
-3.26275e-08
7.56402e-09
-4.05894e-08
7.96189e-09
-4.87761e-08
8.18674e-09
-5.70252e-08
8.2491e-09
-6.51856e-08
8.16037e-09
-7.3118e-08
7.93237e-09
-8.06951e-08
7.57708e-09
-8.78015e-08
7.10648e-09
-9.43339e-08
6.5324e-09
-1.002e-07
5.86651e-09
-1.05321e-07
5.12034e-09
-1.09626e-07
4.30522e-09
-1.13058e-07
3.43245e-09
-1.15572e-07
2.51329e-09
-1.17131e-07
1.55906e-09
-1.17712e-07
5.81289e-10
-1.17304e-07
-4.08281e-10
-1.15906e-07
-1.39756e-09
-1.13532e-07
-2.37407e-09
-1.10207e-07
-3.3249e-09
-1.05971e-07
-4.23668e-09
-1.00875e-07
-5.09562e-09
-9.49874e-08
-5.88753e-09
-8.83894e-08
-6.59797e-09
-8.11771e-08
-7.2123e-09
-7.34612e-08
-7.71592e-09
-6.53668e-08
-8.09441e-09
-5.70329e-08
-8.33385e-09
-4.86119e-08
-8.42102e-09
-4.02681e-08
-8.3438e-09
-3.21766e-08
-8.09153e-09
-2.45211e-08
-7.65552e-09
-1.74913e-08
-7.0298e-09
-1.12791e-08
-6.21221e-09
-6.07256e-09
-5.2065e-09
-2.0462e-09
-4.02635e-09
6.58469e-10
-2.70467e-09
1.97015e-09
-1.31168e-09
1.96839e-09
1.76681e-12
9.81557e-10
9.86847e-10
9.81573e-10
9.31485e-10
-1.90854e-09
7.93726e-10
-7.79547e-10
-1.77991e-09
2.68159e-09
-7.41851e-09
7.08324e-09
-1.62768e-08
1.16841e-08
-2.82204e-08
1.60636e-08
-4.29498e-08
1.99883e-08
-6.00714e-08
2.33378e-08
-7.91445e-08
2.60573e-08
-9.97105e-08
2.81301e-08
-1.21312e-07
2.9563e-08
-1.43502e-07
3.03771e-08
-1.65856e-07
3.06028e-08
-1.87971e-07
3.0276e-08
-2.09475e-07
2.94362e-08
-2.30023e-07
2.81247e-08
-2.493e-07
2.63839e-08
-2.67025e-07
2.42568e-08
-2.82944e-07
2.17861e-08
-2.96838e-07
1.90145e-08
-3.08518e-07
1.59845e-08
-3.17824e-07
1.27385e-08
-3.24629e-07
9.31914e-09
-3.2884e-07
5.76941e-09
-3.30391e-07
2.13288e-09
-3.29254e-07
-1.54593e-09
-3.2543e-07
-5.22139e-09
-3.18957e-07
-8.8465e-09
-3.09909e-07
-1.23729e-08
-2.98395e-07
-1.57507e-08
-2.84562e-07
-1.89288e-08
-2.68595e-07
-2.18548e-08
-2.50717e-07
-2.44758e-08
-2.31191e-07
-2.67387e-08
-2.10316e-07
-2.85906e-08
-1.8843e-07
-2.99804e-08
-1.65905e-07
-3.0859e-08
-1.43145e-07
-3.11811e-08
-1.20582e-07
-3.09064e-08
-9.86722e-08
-3.00017e-08
-7.78848e-08
-2.84429e-08
-5.86958e-08
-2.62189e-08
-4.15716e-08
-2.33364e-08
-2.69496e-08
-1.98285e-08
-1.52075e-08
-1.57685e-08
-6.61621e-09
-1.12959e-08
-1.26569e-09
-6.6622e-09
1.04206e-09
-2.306e-09
9.94654e-10
1.03423e-09
1.97624e-09
-5.8643e-11
-1.84991e-09
-2.58216e-09
1.74399e-09
-8.88987e-09
8.98932e-09
-1.96015e-08
1.77949e-08
-3.48717e-08
2.69544e-08
-5.45259e-08
3.57177e-08
-7.81671e-08
4.36295e-08
-1.05259e-07
5.04301e-08
-1.35186e-07
5.59836e-08
-1.67289e-07
6.02339e-08
-2.00903e-07
6.31762e-08
-2.35366e-07
6.48401e-08
-2.70041e-07
6.5278e-08
-3.04322e-07
6.45571e-08
-3.3764e-07
6.27543e-08
-3.69468e-07
5.99529e-08
-3.99324e-07
5.62397e-08
-4.26771e-07
5.17037e-08
-4.51419e-07
4.64346e-08
-4.72928e-07
4.0523e-08
-4.91003e-07
3.40593e-08
-5.05399e-07
2.71345e-08
-5.15919e-07
1.98399e-08
-5.22418e-07
1.22679e-08
-5.24797e-07
4.5123e-09
-5.23012e-07
-3.3312e-09
-5.17069e-07
-1.11646e-08
-5.07028e-07
-1.88874e-08
-4.93005e-07
-2.6396e-08
-4.75171e-07
-3.35845e-08
-4.53756e-07
-4.03442e-08
-4.29046e-07
-4.65647e-08
-4.01387e-07
-5.21344e-08
-3.71183e-07
-5.69423e-08
-3.38895e-07
-6.08786e-08
-3.05038e-07
-6.38376e-08
-2.70178e-07
-6.57196e-08
-2.34925e-07
-6.64335e-08
-1.99931e-07
-6.59009e-08
-1.65872e-07
-6.40599e-08
-1.33445e-07
-6.08707e-08
-1.0334e-07
-5.63236e-08
-7.62266e-08
-5.04496e-08
-5.27181e-08
-4.33369e-08
-3.33298e-08
-3.51567e-08
-1.84203e-08
-2.62055e-08
-8.11002e-09
-1.69725e-08
-2.18061e-09
-8.2354e-09
6.50907e-11
-1.21149e-09
2.04133e-09
-1.34767e-09
-5.02242e-10
-6.90802e-09
7.30437e-09
-1.76204e-08
1.97017e-08
-3.39326e-08
3.4107e-08
-5.58948e-08
4.89166e-08
-8.32424e-08
6.30653e-08
-1.1548e-07
7.58669e-08
-1.51953e-07
8.69029e-08
-1.91906e-07
9.59371e-08
-2.3453e-07
1.02857e-07
-2.78991e-07
1.07637e-07
-3.24459e-07
1.10309e-07
-3.70127e-07
1.10946e-07
-4.15221e-07
1.0965e-07
-4.59009e-07
1.06543e-07
-5.00813e-07
1.01757e-07
-5.40008e-07
9.54345e-08
-5.76027e-07
8.77227e-08
-6.08364e-07
7.87715e-08
-6.36573e-07
6.87326e-08
-6.60272e-07
5.77587e-08
-6.79142e-07
4.6004e-08
-6.92926e-07
3.36236e-08
-7.01432e-07
2.07747e-08
-7.04537e-07
7.61683e-09
-7.02181e-07
-5.68714e-09
-6.94375e-07
-1.89707e-08
-6.81199e-07
-3.20633e-08
-6.62805e-07
-4.47897e-08
-6.39419e-07
-5.69707e-08
-6.1134e-07
-6.84234e-08
-5.78942e-07
-7.89624e-08
-5.42675e-07
-8.84012e-08
-5.03063e-07
-9.65544e-08
-4.60701e-07
-1.0324e-07
-4.16254e-07
-1.08285e-07
-3.70447e-07
-1.11526e-07
-3.24064e-07
-1.12817e-07
-2.77931e-07
-1.12034e-07
-2.32907e-07
-1.09084e-07
-1.89863e-07
-1.03914e-07
-1.49665e-07
-9.65217e-08
-1.13139e-07
-8.69759e-08
-8.10371e-08
-7.54389e-08
-5.39913e-08
-6.22025e-08
-3.24544e-08
-4.77424e-08
-1.66287e-08
-3.27982e-08
-6.38592e-09
-1.84781e-08
-1.19012e-09
-6.40729e-09
8.51211e-10
-2.71176e-09
2.20951e-09
-1.15459e-08
1.61385e-08
-2.69733e-08
3.51292e-08
-4.91612e-08
5.62949e-08
-7.79725e-08
7.77279e-08
-1.13004e-07
9.80966e-08
-1.53639e-07
1.16502e-07
-1.99107e-07
1.32371e-07
-2.48529e-07
1.45359e-07
-3.00965e-07
1.55293e-07
-3.55445e-07
1.62117e-07
-4.11001e-07
1.65864e-07
-4.66681e-07
1.66627e-07
-5.21575e-07
1.64544e-07
-5.74817e-07
1.59785e-07
-6.25601e-07
1.52541e-07
-6.73183e-07
1.43016e-07
-7.16885e-07
1.31425e-07
-7.56104e-07
1.1799e-07
-7.90305e-07
1.02934e-07
-8.1903e-07
8.64837e-08
-8.41895e-07
6.88696e-08
-8.58595e-07
5.03233e-08
-8.689e-07
3.10795e-08
-8.7266e-07
1.13771e-08
-8.69807e-07
-8.54054e-09
-8.60353e-07
-2.84247e-08
-8.44396e-07
-4.80204e-08
-8.22118e-07
-6.70671e-08
-7.93791e-07
-8.52978e-08
-7.59773e-07
-1.02441e-07
-7.20513e-07
-1.18223e-07
-6.76547e-07
-1.32367e-07
-6.285e-07
-1.44601e-07
-5.7708e-07
-1.5466e-07
-5.23078e-07
-1.62288e-07
-4.67353e-07
-1.67251e-07
-4.10829e-07
-1.6934e-07
-3.54481e-07
-1.68382e-07
-2.99317e-07
-1.64248e-07
-2.46358e-07
-1.56874e-07
-1.96609e-07
-1.4627e-07
-1.51035e-07
-1.3255e-07
-1.10513e-07
-1.15961e-07
-7.57941e-08
-9.69213e-08
-4.74482e-08
-7.60882e-08
-2.58097e-08
-5.44367e-08
-1.09259e-08
-3.33619e-08
-2.52192e-09
-1.48113e-08
-1.67071e-09
-4.04083e-09
6.25037e-09
-1.61779e-08
2.82755e-08
-3.64095e-08
5.53608e-08
-6.45721e-08
8.44576e-08
-1.0029e-07
1.13446e-07
-1.42982e-07
1.40788e-07
-1.91884e-07
1.65405e-07
-2.46097e-07
1.86584e-07
-3.0462e-07
2.03882e-07
-3.6639e-07
2.17064e-07
-4.30318e-07
2.26046e-07
-4.95313e-07
2.30859e-07
-5.60306e-07
2.3162e-07
-6.24267e-07
2.28505e-07
-6.86217e-07
2.21736e-07
-7.45243e-07
2.11567e-07
-8.005e-07
1.98273e-07
-8.51219e-07
1.82144e-07
-8.96711e-07
1.63481e-07
-9.36367e-07
1.4259e-07
-9.69667e-07
1.19783e-07
-9.96171e-07
9.53738e-08
-1.01553e-06
6.96826e-08
-1.02748e-06
4.30328e-08
-1.03186e-06
1.57533e-08
-1.02858e-06
-1.18204e-08
-1.01766e-06
-3.93457e-08
-9.99207e-07
-6.64721e-08
-9.73433e-07
-9.28409e-08
-9.40645e-07
-1.18086e-07
-9.01251e-07
-1.41835e-07
-8.55761e-07
-1.63713e-07
-8.04784e-07
-1.83344e-07
-7.4903e-07
-2.00355e-07
-6.89304e-07
-2.14386e-07
-6.26498e-07
-2.25094e-07
-5.61588e-07
-2.32161e-07
-4.95619e-07
-2.3531e-07
-4.2969e-07
-2.3431e-07
-3.64939e-07
-2.29e-07
-3.02515e-07
-2.19297e-07
-2.43557e-07
-2.05228e-07
-1.89154e-07
-1.86954e-07
-1.40313e-07
-1.64802e-07
-9.79161e-08
-1.39318e-07
-6.26778e-08
-1.11327e-07
-3.51063e-08
-8.20083e-08
-1.54755e-08
-5.29927e-08
-3.82274e-09
-2.64641e-08
-5.49345e-09
-5.29856e-09
1.15489e-08
-2.06684e-08
4.36453e-08
-4.56712e-08
8.03636e-08
-7.98023e-08
1.18589e-07
-1.22421e-07
1.56065e-07
-1.72737e-07
1.91104e-07
-2.29819e-07
2.22487e-07
-2.92621e-07
2.49386e-07
-3.60013e-07
2.71274e-07
-4.30812e-07
2.87863e-07
-5.03813e-07
2.99047e-07
-5.77815e-07
3.04861e-07
-6.5164e-07
3.05445e-07
-7.24157e-07
3.01021e-07
-7.94289e-07
2.91868e-07
-8.6103e-07
2.78308e-07
-9.2345e-07
2.60693e-07
-9.80701e-07
2.39396e-07
-1.03202e-06
2.14804e-07
-1.07675e-06
1.87313e-07
-1.11429e-06
1.57329e-07
-1.14418e-06
1.25261e-07
-1.16602e-06
9.15226e-08
-1.17952e-06
5.65369e-08
-1.1845e-06
2.07317e-08
-1.18087e-06
-1.54563e-08
-1.16863e-06
-5.15809e-08
-1.14792e-06
-8.71859e-08
-1.11895e-06
-1.21805e-07
-1.08208e-06
-1.54963e-07
-1.03773e-06
-1.86177e-07
-9.86488e-07
-2.14959e-07
-9.2901e-07
-2.40822e-07
-8.66078e-07
-2.63287e-07
-7.98579e-07
-2.81886e-07
-7.27495e-07
-2.96178e-07
-6.539e-07
-3.05756e-07
-5.78944e-07
-3.10265e-07
-5.03841e-07
-3.09414e-07
-4.29843e-07
-3.02997e-07
-3.58223e-07
-2.90916e-07
-2.90245e-07
-2.73207e-07
-2.27127e-07
-2.50071e-07
-1.70014e-07
-2.21914e-07
-1.19938e-07
-1.89395e-07
-7.77825e-08
-1.53482e-07
-4.42596e-08
-1.15531e-07
-1.98971e-08
-7.73552e-08
-5.05571e-09
-4.13054e-08
-1.05492e-08
-6.48271e-09
1.80316e-08
-2.49821e-08
6.21447e-08
-5.46721e-08
1.10054e-07
-9.47166e-08
1.58633e-07
-1.44201e-07
2.05549e-07
-2.02107e-07
2.4901e-07
-2.67316e-07
2.87696e-07
-3.38623e-07
3.20692e-07
-4.14755e-07
3.47406e-07
-4.94406e-07
3.67514e-07
-5.76255e-07
3.80896e-07
-6.58993e-07
3.87599e-07
-7.41344e-07
3.87796e-07
-8.22081e-07
3.81759e-07
-9.00043e-07
3.6983e-07
-9.74142e-07
3.52407e-07
-1.04337e-06
3.29924e-07
-1.10682e-06
3.02845e-07
-1.16367e-06
2.7165e-07
-1.21319e-06
2.36833e-07
-1.25476e-06
1.98899e-07
-1.28786e-06
1.58358e-07
-1.31206e-06
1.15729e-07
-1.32706e-06
7.15382e-08
-1.33265e-06
2.63212e-08
-1.32873e-06
-1.93765e-08
-1.31532e-06
-6.49977e-08
-1.29253e-06
-1.09973e-07
-1.26062e-06
-1.53719e-07
-1.21993e-06
-1.95644e-07
-1.17097e-06
-2.35144e-07
-1.11432e-06
-2.71611e-07
-1.0507e-06
-3.04438e-07
-9.80961e-07
-3.33026e-07
-9.06051e-07
-3.56795e-07
-8.27034e-07
-3.75195e-07
-7.45069e-07
-3.87721e-07
-6.61404e-07
-3.93931e-07
-5.77355e-07
-3.93463e-07
-4.94289e-07
-3.86064e-07
-4.13597e-07
-3.71608e-07
-3.36671e-07
-3.50133e-07
-2.64869e-07
-3.21873e-07
-1.99484e-07
-2.87299e-07
-1.41716e-07
-2.47163e-07
-9.26395e-08
-2.02559e-07
-5.31889e-08
-1.54982e-07
-2.4157e-08
-1.06387e-07
-6.21834e-09
-5.92441e-08
-1.67675e-08
-7.60518e-09
2.56368e-08
-2.91348e-08
8.36743e-08
-6.34219e-08
1.44341e-07
-1.09317e-07
2.04528e-07
-1.6563e-07
2.61863e-07
-2.31108e-07
3.14488e-07
-3.04429e-07
3.61018e-07
-3.84213e-07
4.00476e-07
-4.69039e-07
4.32232e-07
-5.57464e-07
4.55939e-07
-6.4805e-07
4.71482e-07
-7.39382e-07
4.7893e-07
-8.30085e-07
4.785e-07
-9.18848e-07
4.70521e-07
-1.00443e-06
4.55408e-07
-1.08566e-06
4.3364e-07
-1.16148e-06
4.05744e-07
-1.23091e-06
3.72278e-07
-1.29308e-06
3.33823e-07
-1.34723e-06
2.90978e-07
-1.39268e-06
2.44351e-07
-1.42889e-06
1.94563e-07
-1.4554e-06
1.4224e-07
-1.47188e-06
8.80205e-08
-1.47811e-06
3.25514e-08
-1.47398e-06
-2.35064e-08
-1.4595e-06
-7.94785e-08
-1.4348e-06
-1.34675e-07
-1.40012e-06
-1.88392e-07
-1.35586e-06
-2.39909e-07
-1.30251e-06
-2.88496e-07
-1.2407e-06
-3.33418e-07
-1.1712e-06
-3.73938e-07
-1.0949e-06
-4.09328e-07
-1.01281e-06
-4.38886e-07
-9.26061e-07
-4.61942e-07
-8.35898e-07
-4.77884e-07
-7.43657e-07
-4.86172e-07
-6.50755e-07
-4.86365e-07
-5.5867e-07
-4.78149e-07
-4.68918e-07
-4.61361e-07
-3.83023e-07
-4.36028e-07
-3.02493e-07
-4.02404e-07
-2.28786e-07
-3.61005e-07
-1.63285e-07
-3.12664e-07
-1.07271e-07
-2.58572e-07
-6.19157e-08
-2.00337e-07
-2.82762e-08
-1.40027e-07
-7.32358e-09
-8.01968e-08
-2.40911e-08
-8.6828e-09
3.43196e-08
-3.31667e-08
1.08158e-07
-7.19817e-08
1.83156e-07
-1.23684e-07
2.5623e-07
-1.86812e-07
3.24991e-07
-2.59872e-07
3.87548e-07
-3.4133e-07
4.42475e-07
-4.29618e-07
4.88764e-07
-5.23155e-07
5.25768e-07
-6.20356e-07
5.5314e-07
-7.1966e-07
5.70785e-07
-8.1954e-07
5.7881e-07
-9.18527e-07
5.77488e-07
-1.01522e-06
5.67216e-07
-1.10831e-06
5.48493e-07
-1.19656e-06
5.21889e-07
-1.27884e-06
4.88028e-07
-1.35414e-06
4.47572e-07
-1.42152e-06
4.01211e-07
-1.4802e-06
3.4965e-07
-1.52946e-06
2.93612e-07
-1.56872e-06
2.33828e-07
-1.59752e-06
1.71039e-07
-1.6155e-06
1.05998e-07
-1.62242e-06
3.94697e-08
-1.61816e-06
-2.77665e-08
-1.60272e-06
-9.49138e-08
-1.57624e-06
-1.61158e-07
-1.53896e-06
-2.25666e-07
-1.49129e-06
-2.87587e-07
-1.43373e-06
-3.46057e-07
-1.36694e-06
-4.00204e-07
-1.29173e-06
-4.49152e-07
-1.20901e-06
-4.9204e-07
-1.11987e-06
-5.28028e-07
-1.02549e-06
-5.56321e-07
-9.27193e-07
-5.76182e-07
-8.264e-07
-5.86965e-07
-7.24629e-07
-5.88136e-07
-6.23474e-07
-5.79304e-07
-5.24578e-07
-5.60257e-07
-4.29611e-07
-5.30995e-07
-3.40241e-07
-4.91774e-07
-2.58106e-07
-4.43141e-07
-1.84786e-07
-3.85984e-07
-1.21786e-07
-3.21572e-07
-7.05173e-08
-2.51606e-07
-3.23023e-08
-1.78242e-07
-8.39028e-09
-1.04109e-07
-3.24814e-08
-9.73356e-09
4.40532e-08
-3.7128e-08
1.35553e-07
-8.04377e-08
2.26465e-07
-1.37939e-07
3.13731e-07
-2.07905e-07
3.94958e-07
-2.88597e-07
4.68239e-07
-3.78258e-07
5.32136e-07
-4.75128e-07
5.85635e-07
-5.77452e-07
6.28092e-07
-6.83496e-07
6.59184e-07
-7.91566e-07
6.78855e-07
-9.00025e-07
6.87269e-07
-1.0073e-06
6.84768e-07
-1.11192e-06
6.71833e-07
-1.21249e-06
6.49057e-07
-1.30771e-06
6.17111e-07
-1.39641e-06
5.76726e-07
-1.47751e-06
5.28677e-07
-1.55007e-06
4.73765e-07
-1.61323e-06
4.12813e-07
-1.66627e-06
3.46658e-07
-1.70859e-06
2.76148e-07
-1.7397e-06
2.02142e-07
-1.75921e-06
1.25511e-07
-1.76688e-06
4.71393e-08
-1.76257e-06
-3.20706e-08
-1.74629e-06
-1.11198e-07
-1.71815e-06
-1.89299e-07
-1.67841e-06
-2.65408e-07
-1.62745e-06
-3.3854e-07
-1.56582e-06
-4.0769e-07
-1.49418e-06
-4.7184e-07
-1.41336e-06
-5.29972e-07
-1.32433e-06
-5.81076e-07
-1.22819e-06
-6.24169e-07
-1.1262e-06
-6.58311e-07
-1.01974e-06
-6.82636e-07
-9.10337e-07
-6.96371e-07
-7.996e-07
-6.98874e-07
-6.89241e-07
-6.89662e-07
-5.81042e-07
-6.68455e-07
-4.76828e-07
-6.3521e-07
-3.78439e-07
-5.90162e-07
-2.87708e-07
-5.33872e-07
-2.0643e-07
-4.67262e-07
-1.3634e-07
-3.91662e-07
-7.91003e-08
-3.08845e-07
-3.62954e-08
-2.21046e-07
-9.43912e-09
-1.30965e-07
-4.19205e-08
-1.0775e-08
5.48282e-08
-4.10722e-08
1.6585e-07
-8.88867e-08
2.7428e-07
-1.52225e-07
3.7707e-07
-2.29097e-07
4.7183e-07
-3.17514e-07
5.56656e-07
-4.15493e-07
6.30116e-07
-5.21069e-07
6.9121e-07
-6.32305e-07
7.39327e-07
-7.47309e-07
7.74188e-07
-8.6425e-07
7.95797e-07
-9.81373e-07
8.04392e-07
-1.09701e-06
8.00406e-07
-1.2096e-06
7.84418e-07
-1.31767e-06
7.57127e-07
-1.41987e-06
7.19318e-07
-1.51499e-06
6.71841e-07
-1.6019e-06
6.15588e-07
-1.67962e-06
5.51482e-07
-1.74727e-06
4.80467e-07
-1.80411e-06
4.03499e-07
-1.84951e-06
3.21547e-07
-1.88296e-06
2.3559e-07
-1.90406e-06
1.46617e-07
-1.91256e-06
5.56374e-08
-1.90831e-06
-3.63252e-08
-1.89128e-06
-1.28222e-07
-1.8616e-06
-2.18979e-07
-1.81951e-06
-3.07497e-07
-1.76541e-06
-3.92647e-07
-1.69981e-06
-4.73281e-07
-1.62342e-06
-5.48231e-07
-1.53707e-06
-6.16324e-07
-1.44176e-06
-6.76393e-07
-1.33863e-06
-7.27299e-07
-1.22899e-06
-7.67948e-07
-1.1143e-06
-7.97322e-07
-9.96163e-07
-8.1451e-07
-8.76296e-07
-8.18741e-07
-7.56536e-07
-8.09422e-07
-6.3881e-07
-7.86182e-07
-5.25107e-07
-7.48913e-07
-4.17457e-07
-6.97812e-07
-3.17899e-07
-6.33429e-07
-2.28458e-07
-5.56704e-07
-1.51113e-07
-4.69007e-07
-8.77849e-08
-3.72174e-07
-4.03201e-08
-2.68511e-07
-1.04908e-08
-1.60794e-07
-5.24113e-08
-1.18235e-08
6.66517e-08
-4.50516e-08
1.99078e-07
-9.74268e-08
3.26655e-07
-1.66689e-07
4.46332e-07
-2.50583e-07
5.55724e-07
-3.46868e-07
6.52941e-07
-4.53325e-07
7.36573e-07
-5.67775e-07
8.0566e-07
-6.8809e-07
8.59643e-07
-8.12214e-07
8.98311e-07
-9.3817e-07
9.21753e-07
-1.06408e-06
9.30305e-07
-1.18818e-06
9.24505e-07
-1.30882e-06
9.05051e-07
-1.42445e-06
8.72763e-07
-1.53369e-06
8.28555e-07
-1.63525e-06
7.73403e-07
-1.72799e-06
7.08329e-07
-1.8109e-06
6.34384e-07
-1.88307e-06
5.52636e-07
-1.94373e-06
4.64168e-07
-1.99226e-06
3.70069e-07
-2.02811e-06
2.71439e-07
-2.05088e-06
1.69391e-07
-2.06029e-06
6.50522e-08
-2.05619e-06
-4.04275e-08
-2.03854e-06
-1.45873e-07
-2.00744e-06
-2.50079e-07
-1.96313e-06
-3.51808e-07
-1.90599e-06
-4.4979e-07
-1.83654e-06
-5.42725e-07
-1.75548e-06
-6.29289e-07
-1.66366e-06
-7.08148e-07
-1.56209e-06
-7.77968e-07
-1.45195e-06
-8.37437e-07
-1.3346e-06
-8.85294e-07
-1.21157e-06
-9.20354e-07
-1.08454e-06
-9.41544e-07
-9.55333e-07
-9.47945e-07
-8.25924e-07
-9.3883e-07
-6.98391e-07
-9.13716e-07
-5.749e-07
-8.72403e-07
-4.57683e-07
-8.15029e-07
-3.49004e-07
-7.42108e-07
-2.51129e-07
-6.54579e-07
-1.66297e-07
-5.53839e-07
-9.66955e-08
-4.41775e-07
-4.44415e-08
-3.20765e-07
-1.15652e-08
-1.93671e-07
-6.39764e-08
-1.28941e-08
7.95458e-08
-4.91157e-08
2.353e-07
-1.06153e-07
3.83692e-07
-1.81476e-07
5.21655e-07
-2.7256e-07
6.46808e-07
-3.76902e-07
7.57283e-07
-4.9204e-07
8.51711e-07
-6.15571e-07
9.29191e-07
-7.45169e-07
9.8924e-07
-8.78601e-07
1.03174e-06
-1.01374e-06
1.0569e-06
-1.14859e-06
1.06515e-06
-1.28128e-06
1.05719e-06
-1.41006e-06
1.03383e-06
-1.53334e-06
9.96043e-07
-1.64966e-06
9.44879e-07
-1.75771e-06
8.81456e-07
-1.85632e-06
8.06935e-07
-1.94444e-06
7.22501e-07
-2.02115e-06
6.29354e-07
-2.08569e-06
5.28704e-07
-2.13739e-06
4.21764e-07
-2.1757e-06
3.09756e-07
-2.20022e-06
1.93912e-07
-2.21065e-06
7.54812e-08
-2.20681e-06
-4.42652e-08
-2.18866e-06
-1.64026e-07
-2.15628e-06
-2.82465e-07
-2.10987e-06
-3.98208e-07
-2.04982e-06
-5.0984e-07
-1.97664e-06
-6.15906e-07
-1.89101e-06
-7.14923e-07
-1.79378e-06
-8.05383e-07
-1.68597e-06
-8.85774e-07
-1.5688e-06
-9.54604e-07
-1.44367e-06
-1.01042e-06
-1.31217e-06
-1.05186e-06
-1.17606e-06
-1.07765e-06
-1.03729e-06
-1.08672e-06
-8.97947e-07
-1.07817e-06
-7.60284e-07
-1.05138e-06
-6.26657e-07
-1.00603e-06
-4.99512e-07
-9.42174e-07
-3.81352e-07
-8.60268e-07
-2.74703e-07
-7.61228e-07
-1.82081e-07
-6.46462e-07
-1.05956e-07
-5.179e-07
-4.8723e-08
-3.77998e-07
-1.26812e-08
-2.29713e-07
-7.66576e-08
-1.40004e-08
9.35463e-08
-5.33106e-08
2.7461e-07
-1.15155e-07
4.45536e-07
-1.96723e-07
6.03224e-07
-2.95212e-07
7.45296e-07
-4.07845e-07
8.69917e-07
-5.31907e-07
9.75773e-07
-6.64759e-07
1.06204e-06
-8.03867e-07
1.12835e-06
-9.46817e-07
1.17469e-06
-1.09133e-06
1.20141e-06
-1.23527e-06
1.2091e-06
-1.37666e-06
1.19858e-06
-1.51369e-06
1.17085e-06
-1.64468e-06
1.12704e-06
-1.76814e-06
1.06834e-06
-1.88272e-06
9.96033e-07
-1.98721e-06
9.11429e-07
-2.08056e-06
8.15853e-07
-2.16185e-06
7.10644e-07
-2.23029e-06
5.9714e-07
-2.2852e-06
4.76679e-07
-2.32605e-06
3.50604e-07
-2.3524e-06
2.20264e-07
-2.36395e-06
8.70276e-08
-2.3605e-06
-4.77162e-08
-2.34198e-06
-1.82543e-07
-2.30846e-06
-3.1599e-07
-2.26012e-06
-4.46544e-07
-2.19732e-06
-5.72646e-07
-2.12054e-06
-6.92687e-07
-2.03045e-06
-8.05013e-07
-1.92789e-06
-9.0794e-07
-1.8139e-06
-9.99767e-07
-1.6897e-06
-1.0788e-06
-1.55673e-06
-1.14339e-06
-1.41664e-06
-1.19195e-06
-1.27127e-06
-1.22302e-06
-1.12268e-06
-1.23531e-06
-9.73105e-07
-1.22774e-06
-8.24961e-07
-1.19952e-06
-6.80808e-07
-1.15018e-06
-5.43322e-07
-1.07966e-06
-4.15263e-07
-9.88327e-07
-2.99437e-07
-8.77053e-07
-1.98654e-07
-7.47245e-07
-1.15685e-07
-6.00869e-07
-5.32256e-08
-4.40457e-07
-1.38566e-08
-2.69082e-07
-9.05143e-08
-1.51548e-08
1.08701e-07
-5.76783e-08
3.17133e-07
-1.24514e-07
5.12372e-07
-2.12558e-07
6.91268e-07
-3.18709e-07
8.51448e-07
-4.39908e-07
9.91116e-07
-5.73169e-07
1.10903e-06
-7.15608e-07
1.20448e-06
-8.64471e-07
1.27721e-06
-1.01716e-06
1.32738e-06
-1.17122e-06
1.35547e-06
-1.3244e-06
1.36228e-06
-1.47461e-06
1.34879e-06
-1.61995e-06
1.3162e-06
-1.7587e-06
1.26579e-06
-1.88932e-06
1.19895e-06
-2.01042e-06
1.11714e-06
-2.1208e-06
1.0218e-06
-2.21938e-06
9.14434e-07
-2.30524e-06
7.96505e-07
-2.37759e-06
6.69487e-07
-2.43575e-06
5.34844e-07
-2.47918e-06
3.94035e-07
-2.50745e-06
2.48527e-07
-2.52022e-06
9.97974e-08
-2.51728e-06
-5.06489e-08
-2.49856e-06
-2.01271e-07
-2.46407e-06
-3.5048e-07
-2.41398e-06
-4.96632e-07
-2.3486e-06
-6.38023e-07
-2.2684e-06
-7.72887e-07
-2.17402e-06
-8.99399e-07
-2.06627e-06
-1.01569e-06
-1.94618e-06
-1.11986e-06
-1.81499e-06
-1.20999e-06
-1.67416e-06
-1.28422e-06
-1.52539e-06
-1.34072e-06
-1.3706e-06
-1.37781e-06
-1.21195e-06
-1.39395e-06
-1.05184e-06
-1.38786e-06
-8.9285e-07
-1.35851e-06
-7.37752e-07
-1.30528e-06
-5.8947e-07
-1.22794e-06
-4.51042e-07
-1.12675e-06
-3.25574e-07
-1.00252e-06
-2.16193e-07
-8.56626e-07
-1.25998e-07
-6.91064e-07
-5.80071e-08
-5.08448e-07
-1.51083e-08
-3.1198e-07
-1.05623e-07
-1.63682e-08
1.25069e-07
-6.2257e-08
3.63022e-07
-1.34306e-07
5.8442e-07
-2.29094e-07
7.86056e-07
-3.43207e-07
9.65561e-07
-4.7328e-07
1.12119e-06
-6.1604e-07
1.25179e-06
-7.68346e-07
1.35679e-06
-9.27214e-07
1.43608e-06
-1.08984e-06
1.49e-06
-1.25362e-06
1.51925e-06
-1.41616e-06
1.52481e-06
-1.57526e-06
1.5079e-06
-1.72895e-06
1.46989e-06
-1.87546e-06
1.41229e-06
-2.0132e-06
1.3367e-06
-2.14079e-06
1.24472e-06
-2.25699e-06
1.13801e-06
-2.36074e-06
1.01819e-06
-2.45113e-06
8.86892e-07
-2.52736e-06
7.4572e-07
-2.58878e-06
5.96259e-07
-2.63483e-06
4.40083e-07
-2.66507e-06
2.78767e-07
-2.67916e-06
1.13894e-07
-2.67689e-06
-5.29231e-08
-2.65813e-06
-2.20034e-07
-2.62287e-06
-3.85733e-07
-2.57126e-06
-5.48249e-07
-2.50354e-06
-7.05737e-07
-2.42016e-06
-8.56273e-07
-2.32169e-06
-9.9786e-07
-2.20895e-06
-1.12843e-06
-2.08292e-06
-1.24588e-06
-1.94484e-06
-1.34807e-06
-1.79619e-06
-1.43287e-06
-1.6387e-06
-1.49821e-06
-1.47437e-06
-1.54214e-06
-1.30547e-06
-1.56285e-06
-1.13453e-06
-1.5588e-06
-9.64323e-07
-1.52872e-06
-7.97846e-07
-1.47176e-06
-6.38285e-07
-1.3875e-06
-4.88974e-07
-1.27607e-06
-3.53344e-07
-1.13815e-06
-2.34869e-07
-9.751e-07
-1.37005e-07
-7.88928e-07
-6.31227e-08
-5.8233e-07
-1.6452e-08
-3.58651e-07
-1.22075e-07
-1.7651e-08
1.4272e-07
-6.70817e-08
4.12453e-07
-1.44598e-07
6.61937e-07
-2.46438e-07
8.87896e-07
-3.68843e-07
1.08797e-06
-5.08124e-07
1.26047e-06
-6.60701e-07
1.40437e-06
-8.23159e-07
1.51925e-06
-9.9227e-07
1.60519e-06
-1.16502e-06
1.66276e-06
-1.33865e-06
1.69288e-06
-1.51061e-06
1.69677e-06
-1.67862e-06
1.67591e-06
-1.84063e-06
1.6319e-06
-1.99482e-06
1.56649e-06
-2.13959e-06
1.48147e-06
-2.27354e-06
1.37867e-06
-2.39544e-06
1.25991e-06
-2.50425e-06
1.127e-06
-2.59906e-06
9.81702e-07
-2.6791e-06
8.25762e-07
-2.74372e-06
6.60883e-07
-2.79238e-06
4.88748e-07
-2.82465e-06
3.11031e-07
-2.84017e-06
1.29416e-07
-2.8387e-06
-5.43919e-08
-2.8201e-06
-2.3864e-07
-2.78431e-06
-4.21515e-07
-2.73144e-06
-6.01127e-07
-2.66168e-06
-7.75494e-07
-2.57541e-06
-9.42542e-07
-2.47317e-06
-1.1001e-06
-2.35571e-06
-1.2459e-06
-2.22399e-06
-1.37761e-06
-2.07921e-06
-1.49285e-06
-1.92286e-06
-1.58922e-06
-1.75669e-06
-1.66438e-06
-1.58277e-06
-1.71606e-06
-1.40347e-06
-1.74215e-06
-1.22145e-06
-1.74081e-06
-1.03969e-06
-1.71049e-06
-8.614e-07
-1.65005e-06
-6.90059e-07
-1.55884e-06
-5.29317e-07
-1.43681e-06
-3.8296e-07
-1.28451e-06
-2.54841e-07
-1.10322e-06
-1.48807e-07
-8.94962e-07
-6.86247e-08
-6.62513e-07
-1.79029e-08
-4.09373e-07
-1.39977e-07
-1.90123e-08
1.61733e-07
-7.21843e-08
4.65625e-07
-1.55454e-07
7.45207e-07
-2.64681e-07
9.97123e-07
-3.95738e-07
1.21902e-06
-5.44578e-07
1.40931e-06
-7.07296e-07
1.56709e-06
-8.8018e-07
1.69213e-06
-1.05975e-06
1.78476e-06
-1.24278e-06
1.84579e-06
-1.42632e-06
1.87642e-06
-1.60771e-06
1.87817e-06
-1.78457e-06
1.85276e-06
-1.95477e-06
1.80211e-06
-2.11648e-06
1.72819e-06
-2.26808e-06
1.63306e-06
-2.40816e-06
1.51875e-06
-2.53554e-06
1.38729e-06
-2.64919e-06
1.24064e-06
-2.74824e-06
1.08075e-06
-2.83194e-06
9.09463e-07
-2.89967e-06
7.28614e-07
-2.9509e-06
5.39984e-07
-2.98521e-06
3.45339e-07
-3.00224e-06
1.46446e-07
-3.00173e-06
-5.49045e-08
-2.9835e-06
-2.56873e-07
-2.94746e-06
-4.57551e-07
-2.89365e-06
-6.54939e-07
-2.82221e-06
-8.46931e-07
-2.73345e-06
-1.0313e-06
-2.62784e-06
-1.20571e-06
-2.50605e-06
-1.36769e-06
-2.36898e-06
-1.51467e-06
-2.21781e-06
-1.64402e-06
-2.054e-06
-1.75304e-06
-1.8793e-06
-1.83908e-06
-1.69584e-06
-1.89952e-06
-1.50607e-06
-1.93193e-06
-1.31279e-06
-1.93409e-06
-1.11916e-06
-1.90411e-06
-9.2866e-07
-1.84055e-06
-7.4504e-07
-1.74246e-06
-5.72303e-07
-1.60955e-06
-4.14618e-07
-1.44219e-06
-2.76257e-07
-1.24158e-06
-1.61503e-07
-1.00972e-06
-7.45633e-08
-7.49453e-07
-1.94757e-08
-4.64461e-07
-1.59453e-07
-2.04611e-08
1.82194e-07
-7.75949e-08
5.22759e-07
-1.6693e-07
8.34541e-07
-2.83908e-07
1.1141e-06
-4.23995e-07
1.35911e-06
-5.82756e-07
1.56807e-06
-7.55932e-07
1.74027e-06
-9.39494e-07
1.87569e-06
-1.12969e-06
1.97496e-06
-1.32308e-06
2.03917e-06
-1.51653e-06
2.06987e-06
-1.70726e-06
2.06889e-06
-1.89278e-06
2.03829e-06
-2.07095e-06
1.98027e-06
-2.23989e-06
1.89713e-06
-2.39798e-06
1.79116e-06
-2.54387e-06
1.66464e-06
-2.67639e-06
1.51981e-06
-2.79456e-06
1.35881e-06
-2.89755e-06
1.18374e-06
-2.98467e-06
9.96585e-07
-3.05534e-06
7.99276e-07
-3.10904e-06
5.93689e-07
-3.14537e-06
3.81667e-07
-3.16397e-06
1.65048e-07
-3.16457e-06
-5.43099e-08
-3.14694e-06
-2.74496e-07
-3.11097e-06
-4.93523e-07
-3.05661e-06
-7.09297e-07
-2.98394e-06
-9.196e-07
-2.89318e-06
-1.12207e-06
-2.7847e-06
-1.31419e-06
-2.6591e-06
-1.49329e-06
-2.5172e-06
-1.65658e-06
-2.36009e-06
-1.80112e-06
-2.18919e-06
-1.92394e-06
-2.00626e-06
-2.02201e-06
-1.81343e-06
-2.09235e-06
-1.61324e-06
-2.13212e-06
-1.40861e-06
-2.13871e-06
-1.20289e-06
-2.10983e-06
-9.99811e-07
-2.04363e-06
-8.03434e-07
-1.93884e-06
-6.18131e-07
-1.79485e-06
-4.48495e-07
-1.61183e-06
-2.99257e-07
-1.39082e-06
-1.75187e-07
-1.13379e-06
-8.09869e-08
-8.43653e-07
-2.11845e-08
-5.24263e-07
-1.80638e-07
-2.20059e-08
2.04199e-07
-8.33423e-08
5.84095e-07
-1.79079e-07
9.30278e-07
-3.04196e-07
1.23922e-06
-4.53706e-07
1.50862e-06
-6.22749e-07
1.73711e-06
-8.0668e-07
1.9242e-06
-1.00113e-06
2.07014e-06
-1.20207e-06
2.17589e-06
-1.40581e-06
2.24292e-06
-1.60906e-06
2.27313e-06
-1.80891e-06
2.26874e-06
-2.0028e-06
2.23218e-06
-2.18855e-06
2.16602e-06
-2.36427e-06
2.07285e-06
-2.52839e-06
1.95528e-06
-2.67958e-06
1.81583e-06
-2.81675e-06
1.65697e-06
-2.93898e-06
1.48104e-06
-3.04551e-06
1.29027e-06
-3.1357e-06
1.08678e-06
-3.20903e-06
8.72601e-07
-3.26502e-06
6.49687e-07
-3.3033e-06
4.19942e-07
-3.32351e-06
1.85257e-07
-3.32536e-06
-5.24615e-08
-3.3086e-06
-2.91253e-07
-3.27305e-06
-5.2907e-07
-3.21861e-06
-7.63744e-07
-3.14525e-06
-9.92959e-07
-3.05309e-06
-1.21423e-06
-2.9424e-06
-1.42487e-06
-2.81366e-06
-1.62203e-06
-2.66758e-06
-1.80266e-06
-2.50516e-06
-1.96354e-06
-2.32774e-06
-2.10136e-06
-2.13704e-06
-2.21271e-06
-1.93519e-06
-2.2942e-06
-1.72477e-06
-2.34254e-06
-1.50884e-06
-2.35465e-06
-1.29091e-06
-2.32776e-06
-1.07496e-06
-2.25958e-06
-8.6539e-07
-2.14841e-06
-6.6697e-07
-1.99327e-06
-4.84749e-07
-1.79405e-06
-3.2397e-07
-1.5516e-06
-1.89946e-07
-1.26781e-06
-8.79428e-08
-9.45656e-07
-2.30436e-08
-5.89162e-07
-2.03681e-07
-2.36555e-08
2.27855e-07
-8.94555e-08
6.49895e-07
-1.91956e-07
1.03278e-06
-3.25618e-07
1.37288e-06
-4.8495e-07
1.66795e-06
-6.64626e-07
1.91679e-06
-8.59577e-07
2.11915e-06
-1.06507e-06
2.27564e-06
-1.27677e-06
2.38759e-06
-1.49076e-06
2.45691e-06
-1.70356e-06
2.48594e-06
-1.91216e-06
2.47734e-06
-2.11394e-06
2.43396e-06
-2.3067e-06
2.35877e-06
-2.48858e-06
2.25473e-06
-2.65806e-06
2.12475e-06
-2.81388e-06
1.97166e-06
-2.95504e-06
1.79813e-06
-3.0807e-06
1.60671e-06
-3.1902e-06
1.39977e-06
-3.28299e-06
1.17957e-06
-3.3586e-06
9.48209e-07
-3.41662e-06
7.07713e-07
-3.45671e-06
4.60026e-07
-3.47852e-06
2.0707e-07
-3.48176e-06
-4.92237e-08
-3.46614e-06
-3.06869e-07
-3.43143e-06
-5.63782e-07
-3.37743e-06
-8.17744e-07
-3.30403e-06
-1.06636e-06
-3.21121e-06
-1.30704e-06
-3.09913e-06
-1.53696e-06
-2.9681e-06
-1.75306e-06
-2.8187e-06
-1.95205e-06
-2.65181e-06
-2.13044e-06
-2.46865e-06
-2.28452e-06
-2.27086e-06
-2.4105e-06
-2.06053e-06
-2.50452e-06
-1.84028e-06
-2.56279e-06
-1.61325e-06
-2.58168e-06
-1.38312e-06
-2.55789e-06
-1.15412e-06
-2.48858e-06
-9.31003e-07
-2.37153e-06
-7.18951e-07
-2.20532e-06
-5.23519e-07
-1.98948e-06
-3.50515e-07
-1.7246e-06
-2.05868e-07
-1.41246e-06
-9.54781e-08
-1.05605e-06
-2.50674e-08
-6.59573e-07
-2.28748e-07
-2.54194e-08
2.53274e-07
-9.59654e-08
7.20441e-07
-2.05615e-07
1.14243e-06
-3.48245e-07
1.51551e-06
-5.17804e-07
1.83751e-06
-7.08442e-07
2.10743e-06
-9.14627e-07
2.32533e-06
-1.13123e-06
2.49224e-06
-1.35361e-06
2.60996e-06
-1.57759e-06
2.68089e-06
-1.79954e-06
2.70789e-06
-2.01633e-06
2.69413e-06
-2.22532e-06
2.64295e-06
-2.42431e-06
2.55776e-06
-2.6115e-06
2.44192e-06
-2.78544e-06
2.2987e-06
-2.945e-06
2.13122e-06
-3.08928e-06
1.9424e-06
-3.21756e-06
1.73499e-06
-3.32929e-06
1.51151e-06
-3.42404e-06
1.27431e-06
-3.50142e-06
1.02559e-06
-3.5611e-06
7.67396e-07
-3.60278e-06
5.01703e-07
-3.62614e-06
2.30435e-07
-3.63089e-06
-4.44788e-08
-3.6167e-06
-3.21055e-07
-3.58328e-06
-5.97203e-07
-3.53034e-06
-8.70681e-07
-3.45766e-06
-1.13905e-06
-3.36507e-06
-1.39962e-06
-3.25257e-06
-1.64946e-06
-3.12031e-06
-1.88532e-06
-2.96869e-06
-2.10368e-06
-2.7984e-06
-2.30072e-06
-2.61053e-06
-2.47239e-06
-2.40659e-06
-2.61444e-06
-2.1886e-06
-2.72252e-06
-1.95915e-06
-2.79224e-06
-1.72144e-06
-2.81939e-06
-1.47931e-06
-2.80002e-06
-1.23723e-06
-2.73065e-06
-1.00031e-06
-2.60845e-06
-7.74169e-07
-2.43146e-06
-5.64924e-07
-2.19873e-06
-3.79008e-07
-1.91052e-06
-2.23038e-07
-1.56843e-06
-1.03641e-07
-1.17544e-06
-2.72708e-08
-7.35943e-07
-2.56019e-07
-2.73086e-08
2.80583e-07
-1.02907e-07
7.96039e-07
-2.20117e-07
1.25964e-06
-3.72155e-07
1.66755e-06
-5.52338e-07
2.01769e-06
-7.54235e-07
2.30932e-06
-9.71805e-07
2.5429e-06
-1.19949e-06
2.71993e-06
-1.43231e-06
2.84278e-06
-1.66585e-06
2.91443e-06
-1.89633e-06
2.93836e-06
-2.12053e-06
2.91833e-06
-2.3358e-06
2.85822e-06
-2.53998e-06
2.76194e-06
-2.73137e-06
2.63331e-06
-2.90864e-06
2.47597e-06
-3.0708e-06
2.29337e-06
-3.21708e-06
2.08868e-06
-3.34694e-06
1.86485e-06
-3.45997e-06
1.62454e-06
-3.55586e-06
1.3702e-06
-3.63435e-06
1.10408e-06