/*--------------------------------*- C++ -*----------------------------------*\
  =========                 |
  \\      /  F ield         | OpenFOAM: The Open Source CFD Toolbox
   \\    /   O peration     | Website:  https://openfoam.org
    \\  /    A nd           | Version:  7
     \\/     M anipulation  |
\*---------------------------------------------------------------------------*/
FoamFile
{
    version     2.0;
    format      ascii;
    class       surfaceScalarField;
    location    "0.0122";
    object      phi;
}
// * * * * * * * * * * * * * * * * * * * * * * * * * * * * * * * * * * * * * //

dimensions      [0 3 -1 0 0 0 0];

internalField   nonuniform List<scalar> 
4900
(
5.45806e-06
-5.45806e-06
9.95933e-06
-4.50128e-06
1.26988e-05
-2.73949e-06
1.44107e-05
-1.71188e-06
1.55155e-05
-1.10485e-06
1.62531e-05
-7.37506e-07
1.67651e-05
-5.12043e-07
1.71342e-05
-3.69078e-07
1.74084e-05
-2.74246e-07
1.76169e-05
-2.08512e-07
1.77782e-05
-1.61235e-07
1.79044e-05
-1.2623e-07
1.80041e-05
-9.97318e-08
1.80835e-05
-7.93347e-08
1.81469e-05
-6.34287e-08
1.81978e-05
-5.08925e-08
1.82387e-05
-4.0918e-08
1.82716e-05
-3.29064e-08
1.8298e-05
-2.64041e-08
1.83191e-05
-2.10609e-08
1.83357e-05
-1.66013e-08
1.83485e-05
-1.28048e-08
1.8358e-05
-9.49098e-09
1.83645e-05
-6.50781e-09
1.83682e-05
-3.72252e-09
1.83692e-05
-1.01365e-09
1.83675e-05
1.73651e-09
1.83628e-05
4.64789e-09
1.8355e-05
7.85075e-09
1.83435e-05
1.14928e-08
1.83277e-05
1.57482e-08
1.83069e-05
2.08289e-08
1.82799e-05
2.69987e-08
1.82453e-05
3.4593e-08
1.82013e-05
4.40458e-08
1.81453e-05
5.5931e-08
1.80743e-05
7.10247e-08
1.79839e-05
9.04067e-08
1.78683e-05
1.15631e-07
1.77193e-05
1.49025e-07
1.7525e-05
1.94245e-07
1.72677e-05
2.57335e-07
1.69189e-05
3.48811e-07
1.64311e-05
4.8781e-07
1.57213e-05
7.09768e-07
1.4643e-05
1.07832e-06
1.29407e-05
1.70226e-06
1.01633e-05
2.77739e-06
5.5596e-06
4.60372e-06
5.5596e-06
-1.16379e-07
-5.34168e-06
1.83328e-06
-6.45093e-06
4.40444e-06
-5.31065e-06
6.6995e-06
-4.00693e-06
8.54805e-06
-2.9534e-06
9.98964e-06
-2.1791e-06
1.11056e-05
-1.62804e-06
1.19721e-05
-1.23553e-06
1.26494e-05
-9.51584e-07
1.31831e-05
-7.42163e-07
1.36066e-05
-5.84767e-07
1.39449e-05
-4.64487e-07
1.42164e-05
-3.71278e-07
1.44353e-05
-2.98215e-07
1.46123e-05
-2.40394e-07
1.47556e-05
-1.94254e-07
1.48719e-05
-1.57143e-07
1.4966e-05
-1.27051e-07
1.5042e-05
-1.02423e-07
1.5103e-05
-8.20364e-08
1.51513e-05
-6.49169e-08
1.51888e-05
-5.02727e-08
1.52167e-05
-3.74475e-08
1.52361e-05
-2.58825e-08
1.52475e-05
-1.50853e-08
1.52511e-05
-4.60247e-09
1.52468e-05
6.00508e-09
1.52342e-05
1.71869e-08
1.52127e-05
2.94262e-08
1.51809e-05
4.3268e-08
1.51373e-05
5.93498e-08
1.50797e-05
7.84396e-08
1.50052e-05
1.01483e-07
1.49101e-05
1.29669e-07
1.47897e-05
1.64516e-07
1.46376e-05
2.07999e-07
1.44459e-05
2.62738e-07
1.4204e-05
3.32286e-07
1.3898e-05
4.21577e-07
1.35094e-05
5.37651e-07
1.30128e-05
6.90839e-07
1.23735e-05
8.96687e-07
1.15432e-05
1.17905e-06
1.04563e-05
1.5747e-06
9.02717e-06
2.13894e-06
7.15959e-06
2.9459e-06
4.79796e-06
4.06389e-06
2.1088e-06
5.46656e-06
9.21181e-09
6.7033e-06
5.56881e-06
-1.08338e-06
-4.25829e-06
-7.64867e-07
-6.76945e-06
5.56153e-07
-6.63167e-06
2.23176e-06
-5.68254e-06
3.89222e-06
-4.61386e-06
5.38032e-06
-3.6672e-06
6.65081e-06
-2.89854e-06
7.70966e-06
-2.29438e-06
8.58195e-06
-1.82388e-06
9.29692e-06
-1.45713e-06
9.8819e-06
-1.16974e-06
1.03604e-05
-9.43013e-07
1.07521e-05
-7.62909e-07
1.10728e-05
-6.18922e-07
1.13355e-05
-5.03126e-07
1.15507e-05
-4.09469e-07
1.17268e-05
-3.33271e-07
1.18707e-05
-2.70863e-07
1.19876e-05
-2.19337e-07
1.20819e-05
-1.76358e-07
1.2157e-05
-1.40026e-07
1.22155e-05
-1.08775e-07
1.22593e-05
-8.1286e-08
1.22899e-05
-5.64227e-08
1.2308e-05
-3.3173e-08
1.2314e-05
-1.05984e-08
1.23078e-05
1.22139e-08
1.22887e-05
3.61975e-08
1.22558e-05
6.23535e-08
1.22073e-05
9.18035e-08
1.21408e-05
1.25848e-07
1.20532e-05
1.66036e-07
1.19404e-05
2.14252e-07
1.17973e-05
2.72829e-07
1.16171e-05
3.44694e-07
1.13915e-05
4.33577e-07
1.11099e-05
5.44291e-07
1.07591e-05
6.83141e-07
1.03222e-05
8.58512e-07
9.77811e-06
1.0817e-06
9.10089e-06
1.36806e-06
8.25909e-06
1.73849e-06
7.21725e-06
2.22089e-06
5.94141e-06
2.85054e-06
4.41462e-06
3.66573e-06
2.67221e-06
4.68832e-06
8.70594e-07
5.8655e-06
-6.00247e-07
6.9374e-06
-1.04539e-06
7.14845e-06
4.52342e-06
-9.18602e-07
-3.33969e-06
-1.36696e-06
-6.3211e-06
-9.9795e-07
-7.00067e-06
-9.20317e-08
-6.58846e-06
1.058e-06
-5.76389e-06
2.25375e-06
-4.86295e-06
3.38471e-06
-4.0295e-06
4.4008e-06
-3.31046e-06
5.28692e-06
-2.71001e-06
6.04601e-06
-2.21622e-06
6.6891e-06
-1.81283e-06
7.23006e-06
-1.48397e-06
7.68296e-06
-1.21581e-06
8.06087e-06
-9.96828e-07
8.37534e-06
-8.17597e-07
8.63634e-06
-6.70476e-07
8.85233e-06
-5.49255e-07
9.03034e-06
-4.48878e-07
9.17621e-06
-3.652e-07
9.29466e-06
-2.94806e-07
9.38948e-06
-2.34856e-07
9.46367e-06
-1.82957e-07
9.51944e-06
-1.37064e-07
9.55841e-06
-9.53873e-08
9.58155e-06
-5.63141e-08
9.58929e-06
-1.83352e-08
9.58148e-06
2.00242e-08
9.5574e-06
6.0273e-08
9.51573e-06
1.04025e-07
9.45446e-06
1.53075e-07
9.37082e-06
2.09482e-07
9.26119e-06
2.7567e-07
9.1209e-06
3.54542e-07
8.94411e-06
4.49622e-07
8.72356e-06
5.65238e-07
8.45039e-06
7.06751e-07
8.11383e-06
8.80847e-07
7.70106e-06
1.09592e-06
7.19706e-06
1.36251e-06
6.58489e-06
1.69386e-06
5.84664e-06
2.10631e-06
4.96586e-06
2.61927e-06
3.93297e-06
3.25378e-06
2.75593e-06
4.02758e-06
1.4796e-06
4.94206e-06
2.15799e-07
5.95212e-06
-8.2252e-07
6.90382e-06
-1.31099e-06
7.42587e-06
-9.27713e-07
6.76517e-06
3.5957e-06
-6.74946e-07
-2.66474e-06
-1.33671e-06
-5.65933e-06
-1.50541e-06
-6.83198e-06
-1.19535e-06
-6.89852e-06
-5.5988e-07
-6.39935e-06
2.45441e-07
-5.66828e-06
1.10461e-06
-4.88867e-06
1.94434e-06
-4.15019e-06
2.72421e-06
-3.48988e-06
3.42565e-06
-2.91766e-06
4.04334e-06
-2.43052e-06
4.57944e-06
-2.02007e-06
5.03994e-06
-1.67631e-06
5.43244e-06
-1.38933e-06
5.76493e-06
-1.15008e-06
6.04506e-06
-9.50603e-07
6.27982e-06
-7.84012e-07
6.47537e-06
-6.44433e-07
6.63703e-06
-5.26864e-07
6.76927e-06
-4.27045e-07
6.87576e-06
-3.41339e-07
6.95941e-06
-2.66615e-07
7.02249e-06
-2.0014e-07
7.06659e-06
-1.39485e-07
7.0927e-06
-8.24299e-08
7.10125e-06
-2.68778e-08
7.09204e-06
2.92323e-08
7.0643e-06
8.80111e-08
7.01662e-06
1.51708e-07
6.94689e-06
2.22804e-07
6.85225e-06
3.04117e-07
6.72901e-06
3.98911e-07
6.57253e-06
5.11025e-07
6.37713e-06
6.45019e-07
6.13603e-06
8.06341e-07
5.84127e-06
1.00152e-06
5.48376e-06
1.23835e-06
5.05357e-06
1.52611e-06
4.5404e-06
1.87568e-06
3.93484e-06
2.29942e-06
3.23055e-06
2.81059e-06
2.42824e-06
3.42158e-06
1.5422e-06
4.13983e-06
6.1048e-07
4.9593e-06
-2.91398e-07
5.84394e-06
-1.03716e-06
6.69788e-06
-1.45054e-06
7.31719e-06
-1.35008e-06
7.32541e-06
-7.00576e-07
6.11567e-06
2.89513e-06
-4.8467e-07
-2.18007e-06
-1.15067e-06
-4.99333e-06
-1.57662e-06
-6.40603e-06
-1.65377e-06
-6.82137e-06
-1.42586e-06
-6.62727e-06
-9.85653e-07
-6.10848e-06
-4.24458e-07
-5.44987e-06
1.86425e-07
-4.76107e-06
7.98038e-07
-4.10149e-06
1.38001e-06
-3.49963e-06
1.91557e-06
-2.96607e-06
2.39711e-06
-2.50162e-06
2.82288e-06
-2.10208e-06
3.19459e-06
-1.76104e-06
3.51585e-06
-1.47134e-06
3.79112e-06
-1.22587e-06
4.0251e-06
-1.018e-06
4.22236e-06
-8.41686e-07
4.38704e-06
-6.91551e-07
4.52284e-06
-5.6284e-07
4.63287e-06
-4.51367e-07
4.71968e-06
-3.53432e-07
4.78528e-06
-2.65738e-07
4.83109e-06
-1.85298e-07
4.85801e-06
-1.09344e-07
4.86636e-06
-3.52303e-08
4.85594e-06
3.9655e-08
4.82596e-06
1.17992e-07
4.77504e-06
2.02623e-07
4.70119e-06
2.9666e-07
4.60171e-06
4.03589e-07
4.47324e-06
5.27382e-07
4.31165e-06
6.72613e-07
4.1121e-06
8.44576e-07
3.86904e-06
1.0494e-06
3.57643e-06
1.29413e-06
3.22802e-06
1.58676e-06
2.81796e-06
1.93617e-06
2.34185e-06
2.35179e-06
1.79841e-06
2.84286e-06
1.19218e-06
3.41682e-06
5.37485e-07
4.07627e-06
-1.36086e-07
4.8134e-06
-7.77118e-07
5.60033e-06
-1.30677e-06
6.37359e-06
-1.61983e-06
7.01095e-06
-1.60463e-06
7.30199e-06
-1.20035e-06
6.92113e-06
-5.1427e-07
5.42959e-06
2.38086e-06
-3.5626e-07
-1.82381e-06
-9.60713e-07
-4.38887e-06
-1.48675e-06
-5.87999e-06
-1.7897e-06
-6.51842e-06
-1.84842e-06
-6.56855e-06
-1.70244e-06
-6.25446e-06
-1.41064e-06
-5.74167e-06
-1.02964e-06
-5.14207e-06
-6.05234e-07
-4.5259e-06
-1.70787e-07
-3.93408e-06
2.51293e-07
-3.38815e-06
6.47181e-07
-2.89751e-06
1.00929e-06
-2.46419e-06
1.33432e-06
-2.08608e-06
1.62178e-06
-1.7588e-06
1.87288e-06
-1.47697e-06
2.0898e-06
-1.23491e-06
2.27514e-06
-1.02702e-06
2.4316e-06
-8.48012e-07
2.56176e-06
-6.93e-07
2.66793e-06
-5.57536e-07
2.75207e-06
-4.37571e-07
2.81574e-06
-3.29409e-07
2.86007e-06
-2.29635e-07
2.88576e-06
-1.35033e-07
2.89303e-06
-4.24999e-08
2.88164e-06
5.10507e-08
2.85084e-06
1.48786e-07
2.79941e-06
2.54051e-07
2.7256e-06
3.70473e-07
2.62713e-06
5.02057e-07
2.50123e-06
6.53282e-07
2.34466e-06
8.29186e-07
2.15381e-06
1.03543e-06
1.92488e-06
1.27832e-06
1.65425e-06
1.56476e-06
1.3389e-06
1.90211e-06
9.77313e-07
2.29775e-06
5.70668e-07
2.75844e-06
1.24587e-07
3.28894e-06
-3.48423e-07
3.88983e-06
-8.25925e-07
4.55378e-06
-1.27222e-06
5.25969e-06
-1.63585e-06
5.96396e-06
-1.85054e-06
6.58828e-06
-1.84437e-06
7.00477e-06
-1.56469e-06
7.02232e-06
-1.02658e-06
6.38301e-06
-3.8502e-07
4.78803e-06
1.99584e-06
-2.72617e-07
-1.5512e-06
-8.03541e-07
-3.85795e-06
-1.35049e-06
-5.33305e-06
-1.77273e-06
-6.09617e-06
-2.01803e-06
-6.32325e-06
-2.08957e-06
-6.18292e-06
-2.01756e-06
-5.81368e-06
-1.84056e-06
-5.31907e-06
-1.59531e-06
-4.77115e-06
-1.31235e-06
-4.21704e-06
-1.01494e-06
-3.68556e-06
-7.19651e-07
-3.19279e-06
-4.37544e-07
-2.7463e-06
-1.75429e-07
-2.34819e-06
6.29642e-08
-1.99719e-06
2.76049e-07
-1.69006e-06
4.63653e-07
-1.42252e-06
6.26473e-07
-1.18984e-06
7.65686e-07
-9.87224e-07
8.82664e-07
-8.09979e-07
9.78788e-07
-6.5366e-07
1.05531e-06
-5.14092e-07
1.11326e-06
-3.87362e-07
1.1534e-06
-2.69778e-07
1.17618e-06
-1.57808e-07
1.18169e-06
-4.80053e-08
1.16966e-06
6.30807e-08
1.13945e-06
1.7899e-07
1.09006e-06
3.03444e-07
1.0201e-06
4.40435e-07
9.2785e-07
5.94303e-07
8.11327e-07
7.69805e-07
6.68365e-07
9.72148e-07
4.96807e-07
1.20699e-06
2.94773e-07
1.48035e-06
6.10794e-08
1.79846e-06
-2.04143e-07
2.16733e-06
-4.98626e-07
2.59223e-06
-8.16766e-07
3.07658e-06
-1.14814e-06
3.62032e-06
-1.47577e-06
4.21746e-06
-1.77432e-06
4.85232e-06
-2.00892e-06
5.4943e-06
-2.13594e-06
6.09098e-06
-2.10759e-06
6.55993e-06
-1.88385e-06
6.78104e-06
-1.45483e-06
6.5933e-06
-8.74563e-07
5.80274e-06
-2.99117e-07
4.21259e-06
1.69672e-06
-2.17071e-07
-1.33413e-06
-6.80421e-07
-3.3946e-06
-1.21168e-06
-4.80179e-06
-1.68812e-06
-5.61973e-06
-2.04683e-06
-5.96454e-06
-2.26954e-06
-5.96021e-06
-2.36518e-06
-5.71805e-06
-2.35585e-06
-5.3284e-06
-2.2676e-06
-4.8594e-06
-2.1252e-06
-4.35944e-06
-1.9497e-06
-3.86107e-06
-1.75772e-06
-3.38478e-06
-1.56165e-06
-2.94237e-06
-1.37027e-06
-2.53957e-06
-1.18947e-06
-2.17799e-06
-1.02293e-06
-1.8566e-06
-8.72707e-07
-1.57274e-06
-7.39764e-07
-1.32279e-06
-6.24317e-07
-1.10267e-06
-5.26136e-07
-9.0816e-07
-4.44766e-07
-7.35031e-07
-3.79677e-07
-5.79181e-07
-3.30384e-07
-4.36655e-07
-2.96525e-07
-3.03637e-07
-2.77916e-07
-1.76417e-07
-2.74589e-07
-5.13324e-08
-2.86812e-07
7.53029e-08
-3.15093e-07
2.07271e-07
-3.60174e-07
3.48526e-07
-4.22999e-07
5.0326e-07
-5.04652e-07
6.75956e-07
-6.06265e-07
8.71418e-07
-7.28867e-07
1.09475e-06
-8.73159e-07
1.35128e-06
-1.0392e-06
1.6464e-06
-1.22596e-06
1.98522e-06
-1.43073e-06
2.3721e-06
-1.64834e-06
2.80984e-06
-1.87024e-06
3.29848e-06
-2.08345e-06
3.83353e-06
-2.26959e-06
4.4036e-06
-2.40428e-06
4.98701e-06
-2.4577e-06
5.54771e-06
-2.39712e-06
6.0304e-06
-2.19313e-06
6.35593e-06
-1.83082e-06
6.41873e-06
-1.3269e-06
6.08938e-06
-7.50636e-07
5.22648e-06
-2.40936e-07
3.70289e-06
1.45578e-06
-1.78654e-07
-1.15547e-06
-5.84461e-07
-2.98879e-06
-1.08477e-06
-4.30148e-06
-1.57729e-06
-5.12721e-06
-1.99911e-06
-5.54272e-06
-2.32109e-06
-5.63822e-06
-2.53803e-06
-5.50111e-06
-2.65906e-06
-5.20736e-06
-2.70033e-06
-4.81813e-06
-2.67994e-06
-4.37982e-06
-2.61516e-06
-3.92585e-06
-2.52092e-06
-3.47901e-06
-2.40939e-06
-3.0539e-06
-2.28999e-06
-2.65897e-06
-2.16973e-06
-2.29825e-06
-2.0536e-06
-1.97273e-06
-1.94504e-06
-1.6813e-06
-1.84628e-06
-1.42155e-06
-1.75866e-06
-1.19029e-06
-1.68294e-06
-9.83874e-07
-1.6195e-06
-7.98475e-07
-1.56846e-06
-6.30221e-07
-1.52985e-06
-4.7526e-07
-1.50369e-06
-3.29797e-07
-1.49004e-06
-1.90074e-07
-1.48903e-06
-5.23419e-08
-1.50091e-06
8.71913e-08
-1.52606e-06
2.32415e-07
-1.5649e-06
3.8737e-07
-1.61793e-06
5.56288e-07
-1.68559e-06
7.43615e-07
-1.76817e-06
9.53995e-07
-1.86562e-06
1.1922e-06
-1.97734e-06
1.463e-06
-2.10183e-06
1.77089e-06
-2.2363e-06
2.11968e-06
-2.37614e-06
2.51194e-06
-2.51433e-06
2.94804e-06
-2.64084e-06
3.42498e-06
-2.742e-06
3.9347e-06
-2.80031e-06
4.46191e-06
-2.79472e-06
4.98143e-06
-2.7022e-06
5.45519e-06
-2.50115e-06
5.82934e-06
-2.17744e-06
6.03223e-06
-1.7337e-06
5.97498e-06
-1.201e-06
5.55668e-06
-6.50636e-07
4.67612e-06
-1.99816e-07
3.25207e-06
1.25597e-06
-1.50821e-07
-1.00465e-06
-5.08578e-07
-2.63104e-06
-9.7284e-07
-3.83722e-06
-1.45982e-06
-4.64023e-06
-1.9114e-06
-5.09114e-06
-2.29422e-06
-5.2554e-06
-2.5946e-06
-5.20074e-06
-2.81239e-06
-4.98957e-06
-2.95554e-06
-4.67498e-06
-3.03591e-06
-4.29945e-06
-3.06646e-06
-3.89529e-06
-3.05957e-06
-3.4859e-06
-3.02615e-06
-3.08732e-06
-2.9753e-06
-2.70982e-06
-2.9143e-06
-2.35925e-06
-2.84881e-06
-2.03822e-06
-2.78305e-06
-1.74706e-06
-2.72011e-06
-1.48449e-06
-2.6622e-06
-1.2482e-06
-2.61084e-06
-1.03524e-06
-2.56706e-06
-8.42259e-07
-2.53154e-06
-6.65733e-07
-2.50477e-06
-5.02033e-07
-2.48707e-06
-3.47496e-07
-2.47871e-06
-1.98438e-07
-2.47991e-06
-5.11403e-08
-2.49089e-06
9.81733e-08
-2.51185e-06
2.53374e-07
-2.54293e-06
4.18452e-07
-2.58418e-06
5.97538e-07
-2.63545e-06
7.94884e-07
-2.69627e-06
1.01481e-06
-2.76568e-06
1.26161e-06
-2.84199e-06
1.53931e-06
-2.92251e-06
1.85141e-06
-3.00321e-06
2.20038e-06
-3.07832e-06
2.58704e-06
-3.13993e-06
3.00966e-06
-3.17772e-06
3.46277e-06
-3.17876e-06
3.93574e-06
-3.12781e-06
4.41095e-06
-3.00822e-06
4.86183e-06
-2.80398e-06
5.25095e-06
-2.50317e-06
5.52853e-06
-2.1032e-06
5.63226e-06
-1.61771e-06
5.48949e-06
-1.08402e-06
5.02299e-06
-5.6901e-07
4.16111e-06
-1.69331e-07
2.85239e-06
1.08664e-06
-1.29745e-07
-8.74906e-07
-4.47302e-07
-2.31348e-06
-8.75086e-07
-3.40944e-06
-1.34469e-06
-4.17062e-06
-1.80449e-06
-4.63134e-06
-2.22071e-06
-4.83917e-06
-2.57517e-06
-4.84629e-06
-2.86153e-06
-4.70321e-06
-3.08154e-06
-4.45497e-06
-3.24174e-06
-4.13926e-06
-3.35098e-06
-3.78605e-06
-3.4188e-06
-3.41809e-06
-3.45429e-06
-3.05183e-06
-3.46563e-06
-2.69849e-06
-3.45976e-06
-2.36511e-06
-3.44243e-06
-2.05556e-06
-3.41821e-06
-1.77128e-06
-3.39067e-06
-1.51202e-06
-3.36256e-06
-1.27631e-06
-3.33593e-06
-1.06187e-06
-3.31231e-06
-8.65883e-07
-3.29281e-06
-6.85235e-07
-3.27824e-06
-5.16601e-07
-3.26919e-06
-3.56544e-07
-3.26608e-06
-2.01548e-07
-3.26919e-06
-4.80273e-08
-3.27869e-06
1.07674e-07
-3.29462e-06
2.69297e-07
-3.31684e-06
4.40672e-07
-3.34501e-06
6.25706e-07
-3.37846e-06
8.28338e-07
-3.41611e-06
1.05246e-06
-3.45625e-06
1.30176e-06
-3.49643e-06
1.57949e-06
-3.53313e-06
1.88811e-06
-3.5616e-06
2.22885e-06
-3.57555e-06
2.601e-06
-3.56702e-06
3.00112e-06
-3.52624e-06
3.422e-06
-3.4419e-06
3.8514e-06
-3.3017e-06
4.27075e-06
-3.09361e-06
4.65374e-06
-2.80793e-06
4.96528e-06
-2.44045e-06
5.16105e-06
-1.99657e-06
5.18838e-06
-1.49609e-06
4.98901e-06
-9.7767e-07
4.50457e-06
-5.01195e-07
3.68464e-06
-1.45717e-07
2.49691e-06
9.40919e-07
-1.13182e-07
-7.61724e-07
-3.96806e-07
-2.02986e-06
-7.89747e-07
-3.01649e-06
-1.23596e-06
-3.72441e-06
-1.69044e-06
-4.17686e-06
-2.121e-06
-4.40861e-06
-2.50755e-06
-4.45974e-06
-2.83997e-06
-4.37079e-06
-3.11557e-06
-4.17937e-06
-3.33667e-06
-3.91816e-06
-3.50855e-06
-3.61417e-06
-3.63795e-06
-3.28869e-06
-3.73202e-06
-2.95775e-06
-3.79765e-06
-2.63286e-06
-3.84107e-06
-2.32169e-06
-3.8677e-06
-2.02893e-06
-3.88209e-06
-1.75689e-06
-3.888e-06
-1.50612e-06
-3.88842e-06
-1.27589e-06
-3.88573e-06
-1.06455e-06
-3.88178e-06
-8.69838e-07
-3.87796e-06
-6.89052e-07
-3.87534e-06
-5.19227e-07
-3.87467e-06
-3.57214e-07
-3.87648e-06
-1.99739e-07
-3.88107e-06
-4.34311e-08
-3.88856e-06
1.15162e-07
-3.89883e-06
2.79563e-07
-3.9115e-06
4.53351e-07
-3.92592e-06
6.40121e-07
-3.94101e-06
8.43424e-07
-3.95519e-06
1.06665e-06
-3.96628e-06
1.31284e-06
-3.97127e-06
1.58448e-06
-3.96624e-06
1.88308e-06
-3.94615e-06
2.20875e-06
-3.90473e-06
2.55958e-06
-3.83451e-06
2.9309e-06
-3.72689e-06
3.31438e-06
-3.5726e-06
3.69711e-06
-3.36246e-06
4.06061e-06
-3.08869e-06
4.37997e-06
-2.74685e-06
4.62344e-06
-2.33841e-06
4.75262e-06
-1.87389e-06
4.72385e-06
-1.37595e-06
4.49107e-06
-8.81863e-07
4.01048e-06
-4.43925e-07
3.2467e-06
-1.26775e-07
2.17976e-06
8.14144e-07
-9.97915e-08
-6.61932e-07
-3.54509e-07
-1.77514e-06
-7.15124e-07
-2.65588e-06
-1.13538e-06
-3.30415e-06
-1.57638e-06
-3.73586e-06
-2.00845e-06
-3.97655e-06
-2.41116e-06
-4.05702e-06
-2.77231e-06
-4.00965e-06
-3.08622e-06
-3.86546e-06
-3.35202e-06
-3.65236e-06
-3.57207e-06
-3.39412e-06
-3.75063e-06
-3.11012e-06
-3.89294e-06
-2.81545e-06
-4.00447e-06
-2.52133e-06
-4.09052e-06
-2.23564e-06
-4.15594e-06
-1.96351e-06
-4.20502e-06
-1.70781e-06
-4.2414e-06
-1.46973e-06
-4.26816e-06
-1.24913e-06
-4.28779e-06
-1.04493e-06
-4.30229e-06
-8.55339e-07
-4.31323e-06
-6.78107e-07
-4.32182e-06
-5.1064e-07
-4.32891e-06
-3.50115e-07
-4.3351e-06
-1.93549e-07
-4.34069e-06
-3.78435e-08
-4.34572e-06
1.20186e-07
-4.34993e-06
2.8378e-07
-4.35278e-06
4.56202e-07
-4.35334e-06
6.4068e-07
-4.35025e-06
8.40327e-07
-4.34161e-06
1.05801e-06
-4.32491e-06
1.29615e-06
-4.29693e-06
1.55649e-06
-4.25358e-06
1.83973e-06
-4.18991e-06
2.14509e-06
-4.10009e-06
2.46976e-06
-3.97749e-06
2.8083e-06
-3.81499e-06
3.15187e-06
-3.60547e-06
3.4876e-06
-3.34271e-06
3.79785e-06
-3.02258e-06
4.05984e-06
-2.64472e-06
4.24558e-06
-2.21458e-06
4.32248e-06
-1.74563e-06
4.2549e-06
-1.26127e-06
4.00672e-06
-7.96021e-07
3.54523e-06
-3.94984e-07
2.84566e-06
-1.11197e-07
1.89598e-06
7.02947e-07
-8.8754e-08
-5.73178e-07
-3.18691e-07
-1.5452e-06
-6.49843e-07
-2.32473e-06
-1.0437e-06
-2.9103e-06
-1.4667e-06
-3.31286e-06
-1.89196e-06
-3.55129e-06
-2.29966e-06
-3.64932e-06
-2.67663e-06
-3.63268e-06
-3.01531e-06
-3.52678e-06
-3.31255e-06
-3.35512e-06
-3.56839e-06
-3.13828e-06
-3.78502e-06
-2.89349e-06
-3.96591e-06
-2.63456e-06
-4.11516e-06
-2.37208e-06
-4.23707e-06
-2.11374e-06
-4.33577e-06
-1.8648e-06
-4.4151e-06
-1.62848e-06
-4.47845e-06
-1.40637e-06
-4.52877e-06
-1.19881e-06
-4.56855e-06
-1.00515e-06
-4.59981e-06
-8.24077e-07
-4.62419e-06
-6.53729e-07
-4.64294e-06
-4.91887e-07
-4.65698e-06
-3.36075e-07
-4.6669e-06
-1.8363e-07
-4.67298e-06
-3.17604e-08
-4.6752e-06
1.22406e-07
-4.67321e-06
2.81787e-07
-4.6663e-06
4.49291e-07
-4.65337e-06
6.27751e-07
-4.63287e-06
8.19828e-07
-4.60274e-06
1.02787e-06
-4.56033e-06
1.25374e-06
-4.50236e-06
1.49853e-06
-4.4249e-06
1.76227e-06
-4.32332e-06
2.04351e-06
-4.19246e-06
2.3389e-06
-4.02675e-06
2.64259e-06
-3.82062e-06
2.94575e-06
-3.56907e-06
3.23605e-06
-3.26845e-06
3.49723e-06
-2.9176e-06
3.70898e-06
-2.51918e-06
3.84716e-06
-2.08124e-06
3.88454e-06
-1.61867e-06
3.79233e-06
-1.15436e-06
3.54241e-06
-7.19534e-07
3.1104e-06
-3.52888e-07
2.47902e-06
-9.81818e-08
1.64127e-06
6.04765e-07
-7.95517e-08
-4.93626e-07
-2.88196e-07
-1.33656e-06
-5.92864e-07
-2.02006e-06
-9.61177e-07
-2.54198e-06
-1.36413e-06
-2.90991e-06
-1.77755e-06
-3.13787e-06
-2.18272e-06
-3.24415e-06
-2.56625e-06
-3.24915e-06
-2.91948e-06
-3.17355e-06
-3.23767e-06
-3.03692e-06
-3.51913e-06
-2.85682e-06
-3.76433e-06
-2.64828e-06
-3.97526e-06
-2.42364e-06
-4.15474e-06
-2.1926e-06
-4.30605e-06
-1.96243e-06
-4.43259e-06
-1.73826e-06
-4.53764e-06
-1.52343e-06
-4.62424e-06
-1.31977e-06
-4.69511e-06
-1.12794e-06
-4.75259e-06
-9.47674e-07
-4.79865e-06
-7.78012e-07
-4.83491e-06
-6.17472e-07
-4.86261e-06
-4.64191e-07
-4.88265e-06
-3.16034e-07
-4.89561e-06
-1.70669e-07
-4.90173e-06
-2.56354e-08
-4.90094e-06
1.21609e-07
-4.89278e-06
2.73634e-07
-4.87647e-06
4.32979e-07
-4.8508e-06
6.02075e-07
-4.81411e-06
7.83146e-07
-4.76431e-06
9.78065e-07
-4.69874e-06
1.18818e-06
-4.61427e-06
1.41406e-06
-4.50723e-06
1.65523e-06
-4.37354e-06
1.90982e-06
-4.20882e-06
2.17417e-06
-4.00864e-06
2.44241e-06
-3.76895e-06
2.70606e-06
-3.48662e-06
2.95372e-06
-3.16019e-06
3.17079e-06
-2.79077e-06
3.33957e-06
-2.38318e-06
3.43958e-06
-1.94701e-06
3.44837e-06
-1.49759e-06
3.3429e-06
-1.05657e-06
3.10139e-06
-6.51867e-07
2.7057e-06
-3.1663e-07
2.14378e-06
-8.7224e-08
1.41186e-06
5.17541e-07
-7.18449e-08
-4.21782e-07
-2.62227e-07
-1.14617e-06
-5.43399e-07
-1.73889e-06
-8.87842e-07
-2.19754e-06
-1.27036e-06
-2.5274e-06
-1.6693e-06
-2.73892e-06
-2.06723e-06
-2.84622e-06
-2.45096e-06
-2.86542e-06
-2.81128e-06
-2.81323e-06
-3.14243e-06
-2.70578e-06
-3.44142e-06
-2.55783e-06
-3.70741e-06
-2.38229e-06
-3.9411e-06
-2.18995e-06
-4.14421e-06
-1.98949e-06
-4.31909e-06
-1.78755e-06
-4.46839e-06
-1.58896e-06
-4.59483e-06
-1.397e-06
-4.70101e-06
-1.21359e-06
-4.78936e-06
-1.03959e-06
-4.86203e-06
-8.7501e-07
-4.92085e-06
-7.19192e-07
-4.96734e-06
-5.70979e-07
-5.00269e-06
-4.28835e-07
-5.02777e-06
-2.90953e-07
-5.04311e-06
-1.55334e-07
-5.0489e-06
-1.98463e-08
-5.045e-06
1.17712e-07
-5.03093e-06
2.59559e-07
-5.00581e-06
4.07865e-07
-4.96841e-06
5.64675e-07
-4.91707e-06
7.31801e-07
-4.8497e-06
9.10695e-07
-4.76379e-06
1.10227e-06
-4.65645e-06
1.30671e-06
-4.5244e-06
1.52319e-06
-4.36417e-06
1.74959e-06
-4.17222e-06
1.98222e-06
-3.94524e-06
2.21543e-06
-3.68056e-06
2.44139e-06
-3.37667e-06
2.64982e-06
-3.03384e-06
2.82796e-06
-2.65493e-06
2.96066e-06
-2.24617e-06
3.03082e-06
-1.81795e-06
3.02015e-06
-1.38542e-06
2.91037e-06
-9.6869e-07
2.68466e-06
-5.92562e-07
2.32957e-06
-2.85503e-07
1.83672e-06
-7.79854e-08
1.20435e-06
4.39556e-07
-6.54001e-08
-3.56382e-07
-2.40217e-07
-9.71356e-07
-5.00834e-07
-1.47827e-06
-8.23594e-07
-1.87478e-06
-1.18644e-06
-2.16455e-06
-1.56997e-06
-2.35539e-06
-1.95802e-06
-2.45817e-06
-2.33787e-06
-2.48557e-06
-2.70012e-06
-2.45097e-06
-3.03837e-06
-2.36753e-06
-3.3487e-06
-2.24749e-06
-3.62927e-06
-2.10173e-06
-3.87974e-06
-1.93948e-06
-4.1009e-06
-1.76833e-06
-4.29426e-06
-1.59418e-06
-4.46178e-06
-1.42145e-06
-4.60561e-06
-1.25317e-06
-4.72793e-06
-1.09126e-06
-4.83084e-06
-9.3668e-07
-4.91624e-06
-7.89611e-07
-4.9858e-06
-6.49637e-07
-5.0409e-06
-5.15873e-07
-5.08266e-06
-3.8708e-07
-5.11185e-06
-2.61759e-07
-5.12896e-06
-1.38226e-07
-5.13413e-06
-1.46764e-08
-5.12717e-06
1.10759e-07
-5.10757e-06
2.39955e-07
-5.07443e-06
3.74729e-07
-5.02652e-06
5.16759e-07
-4.96221e-06
6.67492e-07
-4.87953e-06
8.28018e-07
-4.77618e-06
9.98916e-07
-4.64954e-06
1.18007e-06
-4.49682e-06
1.37047e-06
-4.31515e-06
1.56793e-06
-4.10184e-06
1.7689e-06
-3.8546e-06
1.96819e-06
-3.57196e-06
2.15875e-06
-3.25375e-06
2.33161e-06
-2.90161e-06
2.47582e-06
-2.51963e-06
2.57868e-06
-2.11494e-06
2.62613e-06
-1.69824e-06
2.60345e-06
-1.28413e-06
2.49626e-06
-8.91117e-07
2.29165e-06
-5.41206e-07
1.97966e-06
-2.5898e-07
1.5545e-06
-7.02283e-08
1.0156e-06
3.69328e-07
-6.00495e-08
-2.96332e-07
-2.21742e-07
-8.09664e-07
-4.64674e-07
-1.23534e-06
-7.68244e-07
-1.57121e-06
-1.11297e-06
-1.81982e-06
-1.48135e-06
-1.98701e-06
-1.85844e-06
-2.08108e-06
-2.23209e-06
-2.11192e-06
-2.59293e-06
-2.09013e-06
-2.93417e-06
-2.02629e-06
-3.2513e-06
-1.93037e-06
-3.54167e-06
-1.81135e-06
-3.80416e-06
-1.67699e-06
-4.03878e-06
-1.53372e-06
-4.24631e-06
-1.38665e-06
-4.42811e-06
-1.23965e-06
-4.5858e-06
-1.09548e-06
-4.72115e-06
-9.55908e-07
-4.83593e-06
-8.21906e-07
-4.93177e-06
-6.93766e-07
-5.01016e-06
-5.71246e-07
-5.07235e-06
-4.53687e-07
-5.11932e-06
-3.40109e-07
-5.15178e-06
-2.29295e-07
-5.17015e-06
-1.19859e-07
-5.17452e-06
-1.0307e-08
-5.16467e-06
1.00911e-07
-5.14006e-06
2.15342e-07
-5.0998e-06
3.34471e-07
-5.04269e-06
4.59649e-07
-4.9672e-06
5.91999e-07
-4.87149e-06
7.32315e-07
-4.7535e-06
8.80922e-07
-4.61095e-06
1.03752e-06
-4.44151e-06
1.20103e-06
-4.24294e-06
1.36935e-06
-4.01327e-06
1.53923e-06
-3.75113e-06
1.70606e-06
-3.45609e-06
1.86371e-06
-3.12903e-06
2.00455e-06
-2.77262e-06
2.11942e-06
-2.39182e-06
2.19788e-06
-1.99428e-06
2.22858e-06
-1.59068e-06
2.19986e-06
-1.19492e-06
2.1005e-06
-8.23964e-07
1.9207e-06
-4.97405e-07
1.6531e-06
-2.36648e-07
1.29374e-06
-6.37752e-08
8.42722e-07
3.05552e-07
-5.56665e-08
-2.40666e-07
-2.0647e-07
-6.5886e-07
-4.34499e-07
-1.00731e-06
-7.21547e-07
-1.28416e-06
-1.0502e-06
-1.49117e-06
-1.40456e-06
-1.63265e-06
-1.77075e-06
-1.71489e-06
-2.13721e-06
-1.74546e-06
-2.49471e-06
-1.73263e-06
-2.83629e-06
-1.68472e-06
-3.157e-06
-1.60966e-06
-3.45365e-06
-1.5147e-06
-3.72449e-06
-1.40615e-06
-3.96889e-06
-1.28932e-06
-4.18705e-06
-1.16848e-06
-4.37979e-06
-1.04691e-06
-4.54829e-06
-9.26979e-07
-4.69393e-06
-8.10269e-07
-4.81816e-06
-6.97679e-07
-4.92238e-06
-5.89547e-07
-5.00787e-06
-4.85752e-07
-5.07574e-06
-3.85818e-07
-5.12686e-06
-2.88988e-07
-5.16186e-06
-1.943e-07
-5.18107e-06
-1.00646e-07
-5.18456e-06
-6.82017e-09
-5.17207e-06
8.84238e-08
-5.14306e-06
1.86328e-07
-5.09666e-06
2.88074e-07
-5.03173e-06
3.94717e-07
-4.94684e-06
5.07107e-07
-4.84032e-06
6.25802e-07
-4.71035e-06
7.50949e-07
-4.55499e-06
8.82164e-07
-4.37235e-06
1.01839e-06
-4.16073e-06
1.15773e-06
-3.91885e-06
1.29735e-06
-3.6461e-06
1.43331e-06
-3.34287e-06
1.56048e-06
-3.01088e-06
1.67255e-06
-2.65356e-06
1.7621e-06
-2.27645e-06
1.82076e-06
-1.88745e-06
1.83958e-06
-1.49707e-06
1.80947e-06
-1.11844e-06
1.72187e-06
-7.6715e-07
1.56941e-06
-4.60777e-07
1.34673e-06
-2.18163e-07
1.05112e-06
-5.84868e-08
6.83046e-07
2.47065e-07
-5.21531e-08
-1.88512e-07
-1.94137e-07
-5.16876e-07
-4.09945e-07
-7.91503e-07
-6.83224e-07
-1.01088e-06
-9.98187e-07
-1.17621e-06
-1.34023e-06
-1.29061e-06
-1.6964e-06
-1.35871e-06
-2.05567e-06
-1.3862e-06
-2.40901e-06
-1.37929e-06
-2.74938e-06
-1.34434e-06
-3.07158e-06
-1.28746e-06
-3.37201e-06
-1.21427e-06
-3.64844e-06
-1.12972e-06
-3.89975e-06
-1.038e-06
-4.12569e-06
-9.42542e-07
-4.32662e-06
-8.4598e-07
-4.50334e-06
-7.50265e-07
-4.65689e-06
-6.56718e-07
-4.78845e-06
-5.66118e-07
-4.89921e-06
-4.78793e-07
-4.99026e-06
-3.94702e-07
-5.06256e-06
-3.13511e-07
-5.11689e-06
-2.34657e-07
-5.15379e-06
-1.57404e-07
-5.17354e-06
-8.08988e-08
-5.17615e-06
-4.20812e-09
-5.16136e-06
7.36349e-08
-5.12862e-06
1.5359e-07
-5.07711e-06
2.3656e-07
-5.00573e-06
3.23342e-07
-4.91318e-06
4.14557e-07
-4.79796e-06
5.10581e-07
-4.65846e-06
6.1145e-07
-4.49307e-06
7.16768e-07
-4.30027e-06
8.25592e-07
-4.07886e-06
9.36323e-07
-3.82811e-06
1.04661e-06
-3.54804e-06
1.15324e-06
-3.23969e-06
1.25213e-06
-2.90541e-06
1.33827e-06
-2.54919e-06
1.40588e-06
-2.17691e-06
1.44848e-06
-1.79658e-06
1.45925e-06
-1.41845e-06
1.43134e-06
-1.05494e-06
1.35836e-06
-7.20461e-07
1.23493e-06
-4.30949e-07
1.05722e-06
-2.03233e-07
8.23408e-07
-5.42501e-08
5.34063e-07
1.92815e-07
-4.94317e-08
-1.39081e-07
-1.84529e-07
-3.81779e-07
-3.90701e-07
-5.8533e-07
-6.52992e-07
-7.48592e-07
-9.56854e-07
-8.72349e-07
-1.2887e-06
-9.58766e-07
-1.6363e-06
-1.01111e-06
-1.98909e-06
-1.03341e-06
-2.33826e-06
-1.03013e-06
-2.67675e-06
-1.00585e-06
-2.99919e-06
-9.6502e-07
-3.30171e-06
-9.11749e-07
-3.58174e-06
-8.49688e-07
-3.83779e-06
-7.81953e-07
-4.06924e-06
-7.11098e-07
-4.2761e-06
-6.39122e-07
-4.45885e-06
-5.6751e-07
-4.61829e-06
-4.97283e-07
-4.75534e-06
-4.29059e-07
-4.87102e-06
-3.63119e-07
-4.96626e-06
-2.99461e-07
-5.04191e-06
-2.37864e-07
-5.09863e-06
-1.7793e-07
-5.13691e-06
-1.1913e-07
-5.15696e-06
-6.08419e-08
-5.15879e-06
-2.38662e-09
-5.14209e-06
5.6942e-08
-5.10634e-06
1.17842e-07
-5.05075e-06
1.80966e-07
-4.97429e-06
2.46881e-07
-4.87575e-06
3.16018e-07
-4.75379e-06
3.88617e-07
-4.60699e-06
4.64659e-07
-4.43402e-06
5.43792e-07
-4.23369e-06
6.25258e-07
-4.00517e-06
7.07808e-07
-3.7482e-06
7.89634e-07
-3.46327e-06
8.68313e-07
-3.15192e-06
9.40774e-07
-2.81696e-06
1.00332e-06
-2.46276e-06
1.05168e-06
-2.09543e-06
1.08115e-06
-1.72298e-06
1.0868e-06
-1.35537e-06
1.06373e-06
-1.00443e-06
1.00742e-06
-6.83613e-07
9.14113e-07
-4.07572e-07
7.81175e-07
-1.91606e-07
6.07442e-07
-5.09725e-08
3.9343e-07
1.41843e-07
-4.74426e-08
-9.16381e-08
-1.77473e-07
-2.51749e-07
-3.76508e-07
-3.86295e-07
-6.30585e-07
-4.94514e-07
-9.26055e-07
-5.7688e-07
-1.25007e-06
-6.34755e-07
-1.59095e-06
-6.7022e-07
-1.9385e-06
-6.85861e-07
-2.28407e-06
-6.84559e-07
-2.62064e-06
-6.69282e-07
-2.94273e-06
-6.42926e-07
-3.2463e-06
-6.08184e-07
-3.52853e-06
-5.6746e-07
-3.78767e-06
-5.22813e-07
-4.02282e-06
-4.75942e-07
-4.23376e-06
-4.28184e-07
-4.42073e-06
-3.8054e-07
-4.58431e-06
-3.33704e-07
-4.72526e-06
-2.88103e-07
-4.84444e-06
-2.43941e-07
-4.94267e-06
-2.01231e-07
-5.0207e-06
-1.59839e-07
-5.07911e-06
-1.19512e-07
-5.11834e-06
-7.99074e-08
-5.13856e-06
-4.06216e-08
-5.13973e-06
-1.21035e-09
-5.12158e-06
3.87869e-08
-5.08356e-06
7.98247e-08
-5.02492e-06
1.22326e-07
-4.94469e-06
1.66654e-07
-4.84176e-06
2.13078e-07
-4.71488e-06
2.61739e-07
-4.56282e-06
3.12601e-07
-4.38443e-06
3.65406e-07
-4.1788e-06
4.19623e-07
-3.94539e-06
4.74397e-07
-3.68426e-06
5.28504e-07
-3.39627e-06
5.80321e-07
-3.0833e-06
6.27805e-07
-2.74849e-06
6.68513e-07
-2.39645e-06
6.99641e-07
-2.03343e-06
7.18123e-07
-1.66739e-06
7.2076e-07
-1.30806e-06
7.04399e-07
-9.66785e-07
6.66152e-07
-6.56306e-07
6.03634e-07
-3.90339e-07
5.15208e-07
-1.83076e-07
4.00179e-07
-4.85803e-08
2.58934e-07
9.32626e-08
-4.61411e-08
-4.54971e-08
-1.72841e-07
-1.25048e-07
-3.67162e-07
-1.91975e-07
-6.15782e-07
-2.45895e-07
-9.05631e-07
-2.8703e-07
-1.22435e-06
-3.16041e-07
-1.56063e-06
-3.33939e-07
-1.9045e-06
-3.41987e-07
-2.24746e-06
-3.41596e-07
-2.58252e-06
-3.34227e-07
-2.90414e-06
-3.21307e-07
-3.20815e-06
-3.04168e-07
-3.49161e-06
-2.84002e-07
-3.75259e-06
-2.61834e-07
-3.99002e-06
-2.38511e-07
-4.2035e-06
-2.14703e-07
-4.39313e-06
-1.90912e-07
-4.55934e-06
-1.67491e-07
-4.70279e-06
-1.44658e-07
-4.82421e-06
-1.22519e-07
-4.92436e-06
-1.01084e-07
-5.0039e-06
-8.02917e-08
-5.0634e-06
-6.0018e-08
-5.10321e-06
-4.00957e-08
-5.12351e-06
-2.03257e-08
-5.12423e-06
-4.88827e-10
-5.10508e-06
1.96421e-08
-5.06555e-06
4.02909e-08
-5.00489e-06
6.16654e-08
-4.92218e-06
8.39426e-08
-4.81635e-06
1.07252e-07
-4.68627e-06
1.31658e-07