/*--------------------------------*- C++ -*----------------------------------*\
  =========                 |
  \\      /  F ield         | OpenFOAM: The Open Source CFD Toolbox
   \\    /   O peration     | Website:  https://openfoam.org
    \\  /    A nd           | Version:  7
     \\/     M anipulation  |
\*---------------------------------------------------------------------------*/
FoamFile
{
    version     2.0;
    format      ascii;
    class       volScalarField;
    location    "0.022";
    object      p;
}
// * * * * * * * * * * * * * * * * * * * * * * * * * * * * * * * * * * * * * //

dimensions      [0 2 -2 0 0 0 0];

internalField   nonuniform List<scalar> 
2500
(
-1.65577e-05
6.38464
9.04812
10.1422
10.7332
11.0816
11.295
11.4355
11.5344
11.6077
11.6645
11.7103
11.7485
11.7814
11.8107
11.8376
11.8628
11.887
11.9104
11.9336
11.9566
11.9797
12.0029
12.0264
12.0502
12.0744
12.0992
12.1246
12.1508
12.1778
12.2061
12.2357
12.2671
12.3008
12.3373
12.3774
12.4222
12.4729
12.5316
12.6007
12.6842
12.7878
12.9209
13.1001
13.3575
13.757
14.4154
15.6046
18.3843
24.8928
4.86835
7.46767
8.88446
9.76688
10.3695
10.7753
11.05
11.2422
11.3816
11.4859
11.5665
11.6308
11.6835
11.7281
11.7668
11.8014
11.8329
11.8624
11.8903
11.9173
11.9435
11.9695
11.9952
12.0211
12.0471
12.0735
12.1004
12.128
12.1566
12.1863
12.2175
12.2506
12.2861
12.3245
12.3668
12.4139
12.4672
12.5286
12.6007
12.6869
12.7926
12.9253
13.0969
13.3257
13.6422
14.097
14.7596
15.7149
17.2175
19.934
7.70511
8.46821
9.21055
9.83313
10.3189
10.6806
10.9474
11.146
11.2963
11.4122
11.5036
11.5774
11.6384
11.69
11.7347
11.7743
11.8102
11.8434
11.8745
11.9043
11.933
11.9611
11.9888
12.0164
12.0441
12.0722
12.1007
12.1301
12.1604
12.1921
12.2254
12.2609
12.2991
12.3408
12.3868
12.4383
12.4968
12.5644
12.6437
12.7384
12.8536
12.9965
13.1773
13.4103
13.7158
14.1216
14.6577
15.3348
16.1317
16.9593
9.11539
9.2918
9.67037
10.0709
10.4199
10.7052
10.9334
11.1142
11.2577
11.3726
11.4659
11.5428
11.6074
11.6626
11.7108
11.7536
11.7924
11.8282
11.8617
11.8935
11.9241
11.9539
11.9831
12.0122
12.0413
12.0706
12.1005
12.1311
12.1628
12.1959
12.2309
12.2681
12.3082
12.3519
12.4002
12.4542
12.5154
12.5858
12.6678
12.7647
12.8806
13.0211
13.1933
13.4059
13.6691
13.9928
14.3823
14.8234
15.2376
15.4444
9.9284
9.90714
10.0826
10.3258
10.5648
10.7793
10.964
11.1192
11.2484
11.3558
11.4458
11.5218
11.5869
11.6434
11.6932
11.7378
11.7784
11.8159
11.8511
11.8844
11.9165
11.9476
11.9782
12.0084
12.0386
12.0691
12.1
12.1317
12.1645
12.1987
12.2348
12.2732
12.3145
12.3595
12.4091
12.4643
12.5266
12.5975
12.6792
12.7743
12.8858
13.0175
13.1735
13.358
13.574
13.8212
14.0925
14.3653
14.5633
14.5541
10.4404
10.3542
10.4226
10.5641
10.7229
10.879
11.023
11.1509
11.2623
11.3586
11.4417
11.5138
11.5769
11.6325
11.6823
11.7274
11.7688
11.8072
11.8433
11.8776
11.9107
11.9428
11.9742
12.0054
12.0364
12.0677
12.0994
12.1319
12.1655
12.2005
12.2373
12.2764
12.3184
12.364
12.4139
12.4692
12.5309
12.6006
12.6797
12.7701
12.874
12.9932
13.1297
13.2845
13.4563
13.6399
13.8242
13.987
14.0688
13.984
10.7815
10.6826
10.6976
10.776
10.8785
10.9889
11.098
11.2002
11.2933
11.3767
11.4511
11.5173
11.5765
11.6298
11.6782
11.7226
11.7637
11.8022
11.8386
11.8734
11.9069
11.9396
11.9716
12.0033
12.0349
12.0668
12.099
12.132
12.1661
12.2015
12.2387
12.278
12.3202
12.3656
12.4151
12.4694
12.5296
12.5965
12.6714
12.7554
12.8496
12.9549
13.0714
13.198
13.3316
13.4651
13.5876
13.6812
13.7033
13.6002
11.0234
10.9298
10.9187
10.9586
11.0225
11.0988
11.1796
11.2594
11.3353
11.4059
11.4707
11.5301
11.5844
11.6342
11.6802
11.723
11.7631
11.801
11.8371
11.8718
11.9054
11.9381
11.9704
12.0024
12.0343
12.0664
12.099
12.1322
12.1665
12.202
12.2392
12.2785
12.3202
12.365
12.4134
12.4661
12.5238
12.587
12.6567
12.7334
12.8174
12.9086
13.0062
13.1082
13.2103
13.3058
13.3853
13.4357
13.4277
13.3272
11.2047
11.1208
11.0973
11.1137
11.1516
11.203
11.2617
11.3229
11.3837
11.4422
11.4977
11.5499
11.5988
11.6445
11.6875
11.728
11.7665
11.8032
11.8385
11.8727
11.9059
11.9385
11.9707
12.0027
12.0346
12.0668
12.0994
12.1327
12.1669
12.2023
12.2392
12.278
12.3191
12.3628
12.4097
12.4602
12.5148
12.5739
12.6379
12.7069
12.7807
12.8588
12.9396
13.0206
13.0977
13.1649
13.2148
13.2384
13.2155
13.1234
11.3463
11.2719
11.2429
11.2451
11.2656
11.2991
11.3408
11.387
11.4349
11.4828
11.5296
11.5748
11.6181
11.6595
11.699
11.7369
11.7733
11.8085
11.8426
11.8759
11.9085
11.9407
11.9725
12.0042
12.036
12.0679
12.1004
12.1334
12.1674
12.2024
12.2388
12.2769
12.317
12.3594
12.4044
12.4524
12.5036
12.5583
12.6165
12.678
12.7423
12.8084
12.8746
12.9384
12.9959
13.0423
13.072
13.0788
13.0487
12.9657
11.4602
11.394
11.363
11.3566
11.3655
11.386
11.415
11.4492
11.4865
11.5252
11.5642
11.6029
11.6408
11.6778
11.7139
11.7489
11.7831
11.8164
11.8491
11.8812
11.9129
11.9443
11.9756
12.0068
12.0382
12.0698
12.1019
12.1346
12.1681
12.2026
12.2383
12.2755
12.3144
12.3552
12.3981
12.4434
12.4912
12.5414
12.5939
12.6483
12.7039
12.7595
12.8134
12.8631
12.9055
12.9366
12.9523
12.9487
12.9154
12.8408
11.5539
11.4943
11.463
11.4514
11.4525
11.4639
11.4832
11.5081
11.5368
11.5677
11.5999
11.6327
11.6657
11.6985
11.731
11.7632
11.7949
11.8263
11.8574
11.8882
11.9188
11.9493
11.9798
12.0104
12.0413
12.0724
12.104
12.1361
12.1691
12.2029
12.2378
12.2739
12.3114
12.3505
12.3913
12.4338
12.4781
12.5239
12.5711
12.619
12.6668
12.7133
12.7568
12.7953
12.826
12.8458
12.8519
12.8417
12.8075
12.74
11.632
11.5779
11.5471
11.5324
11.5282
11.5331
11.5452
11.5629
11.5846
11.609
11.6354
11.6631
11.6916
11.7205
11.7497
11.779
11.8083
11.8377
11.8671
11.8964
11.9259
11.9554
11.985
12.0149
12.045
12.0755
12.1065
12.138
12.1702
12.2033
12.2372
12.2722
12.3083
12.3456
12.3842
12.4239
12.4648
12.5066
12.5487
12.5908
12.6317
12.6705
12.7055
12.7349
12.7565
12.7681
12.7675
12.7533
12.7193
12.6578
11.6977
11.6481
11.6182
11.6017
11.594
11.5942
11.601
11.613
11.6291
11.6483
11.6698
11.693
11.7175
11.7429
11.769
11.7956
11.8227
11.85
11.8777
11.9056
11.9337
11.9621
11.9908
12.0199
12.0492
12.079
12.1093
12.1401
12.1716
12.2037
12.2367
12.2704
12.3051
12.3406
12.377
12.4141
12.4518
12.4897
12.5274
12.5642
12.5992
12.6314
12.6593
12.6815
12.6963
12.7017
12.6965
12.6798
12.6466
12.5903
11.7533
11.7075
11.6785
11.661
11.651
11.6478
11.6507
11.6584
11.6701
11.685
11.7024
11.7218
11.7428
11.7651
11.7883
11.8125
11.8373
11.8628
11.8887
11.9152
11.9421
11.9694
11.9971
12.0252
12.0538
12.0828
12.1124
12.1424
12.1731
12.2043
12.2362
12.2687
12.3019
12.3357
12.37
12.4046
12.4393
12.4737
12.5074
12.5395
12.5695
12.5961
12.6183
12.6348
12.6442
12.6452
12.6368
12.6186
12.5864
12.5347
11.8005
11.7578
11.7298
11.7118
11.7003
11.6947
11.6946
11.699
11.7072
11.7186
11.7327
11.7488
11.7668
11.7863
11.8071
11.829
11.8518
11.8755
11.8999
11.9249
11.9506
11.9768
12.0035
12.0307
12.0585
12.0867
12.1155
12.1448
12.1746
12.2049
12.2357
12.2671
12.2988
12.3309
12.3633
12.3955
12.4275
12.4588
12.4889
12.5171
12.5426
12.5647
12.5822
12.5942
12.5995
12.5971
12.5865
12.5675
12.5366
12.4887
11.8405
11.8003
11.7734
11.7552
11.7427
11.7354
11.733
11.7349
11.7404
11.749
11.7603
11.7738
11.7892
11.8063
11.8249
11.8448
11.8658
11.8878
11.9107
11.9344
11.9589
11.984
12.0098
12.0362
12.0631
12.0906
12.1186
12.1471
12.176
12.2055
12.2353
12.2655
12.2959
12.3264
12.3569
12.3871
12.4166
12.4451
12.472
12.4968
12.5187
12.537
12.5507
12.5591
12.5613
12.5565
12.5444
12.525
12.4954
12.4507
11.8742
11.8362
11.8102
11.7921
11.7788
11.7704
11.7664
11.7663
11.7696
11.776
11.785
11.7963
11.8096
11.8247
11.8414
11.8595
11.8789
11.8994
11.921
11.9435
11.9669
11.991
12.0159
12.0414
12.0676
12.0943
12.1215
12.1493
12.1774
12.206
12.2349
12.264
12.2931
12.3222
12.3511
12.3793
12.4067
12.4328
12.457
12.4789
12.4977
12.5129
12.5236
12.5291
12.5289
12.5223
12.5092
12.4898
12.4613
12.4196
11.9024
11.8662
11.8411
11.823
11.8094
11.8001
11.7949
11.7933
11.795
11.7996
11.8067
11.8162
11.8277
11.8411
11.8562
11.8728
11.8908
11.91
11.9304
11.9519
11.9742
11.9975
12.0215
12.0463
12.0717
12.0977
12.1243
12.1513
12.1787
12.2065
12.2345
12.2626
12.2906
12.3184
12.3458
12.3724
12.3979
12.4218
12.4438
12.4633
12.4796
12.4922
12.5005
12.5038
12.5017
12.4939
12.4801
12.4608
12.4335
12.3942
11.9257
11.891
11.8666
11.8487
11.8348
11.8249
11.8188
11.8161
11.8165
11.8197
11.8254
11.8334
11.8435
11.8555
11.8692
11.8845
11.9013
11.9195
11.9388
11.9593
11.9808
12.0033
12.0265
12.0506
12.0754
12.1008
12.1267
12.1531
12.1798
12.2069
12.2341
12.2613
12.2883
12.315
12.3411
12.3663
12.3902
12.4124
12.4325
12.4499
12.4642
12.4748
12.4811
12.4828
12.4793
12.4705
12.4564
12.4373
12.4109
12.3737
11.9444
11.911
11.8872
11.8695
11.8555
11.8451
11.8384
11.8348
11.8342
11.8363
11.8409
11.8478
11.8567
11.8676
11.8802
11.8945
11.9103
11.9275
11.946
11.9657
11.9865
12.0082
12.0309
12.0544
12.0786
12.1034
12.1288
12.1546
12.1808
12.2072
12.2337
12.2602
12.2864
12.3121
12.3371
12.3611
12.3837
12.4045
12.423
12.4389
12.4515
12.4605
12.4654
12.4657
12.4613
12.4518
12.4374
12.4185
12.393
12.3575
11.959
11.9265
11.9033
11.8857
11.8717
11.861
11.8538
11.8496
11.8483
11.8496
11.8534
11.8593
11.8674
11.8773
11.8891
11.9026
11.9176
11.9341
11.9519
11.9709
11.9911
12.0123
12.0345
12.0574
12.0812
12.1055
12.1305
12.1558
12.1815
12.2074
12.2334
12.2593
12.2848
12.3097
12.3339
12.3569
12.3784
12.3981
12.4155
12.4301
12.4415
12.4493
12.453
12.4524
12.4472
12.4373
12.4227
12.4041
12.3793
12.3451
11.9698
11.938
11.9151
11.8977
11.8836
11.8728
11.8652
11.8607
11.8588
11.8596
11.8627
11.868
11.8754
11.8847
11.8959
11.9087
11.9232
11.9391
11.9564
11.9749
11.9947
12.0154
12.0372
12.0598
12.0832
12.1072
12.1318
12.1568
12.1821
12.2076
12.2332
12.2585
12.2835
12.3079
12.3314
12.3537
12.3745
12.3933
12.4098
12.4235
12.434
12.4409
12.4439
12.4426
12.4369
12.4266
12.412
12.3935
12.3693
12.3362
11.9768
11.9455
11.9229
11.9056
11.8915
11.8806
11.8728
11.8679
11.8658
11.8662
11.8689
11.8738
11.8807
11.8897
11.9004
11.9128
11.9269
11.9425
11.9594
11.9776
11.9971
12.0175
12.039
12.0614
12.0845
12.1083
12.1326
12.1574
12.1825
12.2077
12.233
12.258
12.2827
12.3067
12.3298
12.3516
12.3718
12.3901
12.406
12.4191
12.429
12.4354
12.4378
12.4361
12.4301
12.4196
12.405
12.3867
12.3628
12.3303
11.9803
11.9492
11.9267
11.9095
11.8954
11.8844
11.8766
11.8716
11.8693
11.8694
11.872
11.8767
11.8834
11.8921
11.9027
11.9149
11.9288
11.9441
11.9609
11.979
11.9983
12.0186
12.0399
12.0622
12.0852
12.1088
12.1331
12.1577
12.1827
12.2078
12.2329
12.2578
12.2823
12.3061
12.3289
12.3505
12.3705
12.3885
12.4041
12.4169
12.4266
12.4326
12.4348
12.4329
12.4267
12.4162
12.4016
12.3833
12.3596
12.3275
11.9803
11.9492
11.9267
11.9095
11.8954
11.8844
11.8766
11.8716
11.8693
11.8694
11.872
11.8767
11.8834
11.8921
11.9027
11.9149
11.9288
11.9441
11.9609
11.979
11.9983
12.0186
12.0399
12.0622
12.0852
12.1088
12.1331
12.1577
12.1827
12.2078
12.2329
12.2578
12.2823
12.3061
12.3289
12.3505
12.3705
12.3885
12.4041
12.4169
12.4266
12.4326
12.4348
12.4329
12.4267
12.4162
12.4016
12.3833
12.3596
12.3275
11.9768
11.9455
11.9229
11.9056
11.8915
11.8806
11.8728
11.8679
11.8658
11.8661
11.8689
11.8738
11.8807
11.8897
11.9004
11.9128
11.9269
11.9425
11.9594
11.9776
11.9971
12.0175
12.039
12.0614
12.0845
12.1083
12.1326
12.1574
12.1825
12.2077
12.233
12.258
12.2827
12.3067
12.3298
12.3516
12.3718
12.3901
12.406
12.4191
12.429
12.4354
12.4378
12.4361
12.4301
12.4196
12.405
12.3867
12.3628
12.3303
11.9698
11.938
11.9151
11.8977
11.8836
11.8728
11.8652
11.8607
11.8588
11.8596
11.8627
11.868
11.8754
11.8847
11.8959
11.9087
11.9232
11.9391
11.9564
11.9749
11.9947
12.0154
12.0372
12.0598
12.0832
12.1072
12.1318
12.1568
12.1821
12.2076
12.2332
12.2585
12.2835
12.3079
12.3314
12.3537
12.3745
12.3933
12.4098
12.4235
12.434
12.4409
12.4438
12.4426
12.4369
12.4266
12.412
12.3935
12.3693
12.3362
11.959
11.9265
11.9033
11.8857
11.8717
11.861
11.8538
11.8496
11.8483
11.8496
11.8534
11.8593
11.8674
11.8773
11.8891
11.9026
11.9176
11.9341
11.9519
11.9709
11.9911
12.0123
12.0345
12.0574
12.0812
12.1055
12.1305
12.1558
12.1815
12.2074
12.2334
12.2592
12.2848
12.3097
12.3339
12.3569
12.3784
12.3981
12.4155
12.4301
12.4415
12.4492
12.453
12.4524
12.4472
12.4372
12.4227
12.4041
12.3793
12.3451
11.9444
11.911
11.8872
11.8695
11.8555
11.8451
11.8384
11.8348
11.8342
11.8363
11.8409
11.8478
11.8567
11.8676
11.8802
11.8945
11.9103
11.9275
11.946
11.9657
11.9865
12.0082
12.0309
12.0544
12.0786
12.1034
12.1288
12.1546
12.1808
12.2072
12.2337
12.2602
12.2864
12.3121
12.3371
12.3611
12.3837
12.4045
12.423
12.4389
12.4515
12.4605
12.4654
12.4657
12.4613
12.4518
12.4374
12.4185
12.393
12.3575
11.9257
11.891
11.8666
11.8487
11.8348
11.8249
11.8188
11.8161
11.8165
11.8197
11.8254
11.8334
11.8435
11.8555
11.8692
11.8845
11.9013
11.9195
11.9388
11.9593
11.9808
12.0033
12.0265
12.0506
12.0754
12.1008
12.1267
12.1531
12.1798
12.2069
12.2341
12.2613
12.2883
12.315
12.3411
12.3663
12.3902
12.4124
12.4325
12.4499
12.4642
12.4748
12.4811
12.4828
12.4793
12.4705
12.4564
12.4373
12.4109
12.3737
11.9024
11.8662
11.8411
11.823
11.8094
11.8001
11.7949
11.7933
11.795
11.7996
11.8067
11.8162
11.8277
11.8411
11.8562
11.8728
11.8908
11.91
11.9304
11.9519
11.9742
11.9975
12.0215
12.0463
12.0717
12.0977
12.1243
12.1513
12.1787
12.2065
12.2345
12.2626
12.2906
12.3184
12.3458
12.3724
12.3979
12.4218
12.4438
12.4633
12.4796
12.4922
12.5004
12.5038
12.5017
12.4939
12.4801
12.4608
12.4335
12.3942
11.8742
11.8362
11.8102
11.7921
11.7788
11.7704
11.7664
11.7663
11.7696
11.776
11.785
11.7963
11.8096
11.8247
11.8414
11.8595
11.8789
11.8994
11.921
11.9435
11.9669
11.991
12.0159
12.0414
12.0676
12.0943
12.1215
12.1493
12.1774
12.206
12.2349
12.264
12.2931
12.3222
12.3511
12.3793
12.4067
12.4328
12.457
12.4789
12.4977
12.5129
12.5236
12.5291
12.5289
12.5223
12.5092
12.4898
12.4613
12.4196
11.8405
11.8003
11.7734
11.7552
11.7427
11.7354
11.733
11.7349
11.7404
11.749
11.7603
11.7738
11.7892
11.8063
11.8249
11.8448
11.8658
11.8878
11.9107
11.9344
11.9589
11.984
12.0098
12.0362
12.0631
12.0906
12.1186
12.1471
12.176
12.2055
12.2353
12.2655
12.2959
12.3264
12.3569
12.3871
12.4166
12.4451
12.472
12.4968
12.5187
12.537
12.5507
12.5591
12.5613
12.5565
12.5444
12.525
12.4954
12.4507
11.8005
11.7577
11.7298
11.7118
11.7003
11.6947
11.6946
11.699
11.7072
11.7186
11.7327
11.7488
11.7668
11.7863
11.8071
11.829
11.8518
11.8755
11.8999
11.9249
11.9506
11.9768
12.0035
12.0307
12.0585
12.0867
12.1155
12.1448
12.1746
12.2049
12.2357
12.2671
12.2988
12.3309
12.3633
12.3955
12.4275
12.4588
12.4889
12.5171
12.5426
12.5647
12.5822
12.5942
12.5995
12.5971
12.5865
12.5675
12.5366
12.4887
11.7533
11.7075
11.6785
11.661
11.651
11.6478
11.6507
11.6584
11.6701
11.685
11.7024
11.7218
11.7428
11.765
11.7883
11.8125
11.8373
11.8628
11.8887
11.9152
11.9421
11.9694
11.9971
12.0252
12.0538
12.0828
12.1124
12.1424
12.173
12.2043
12.2362
12.2687
12.3019
12.3357
12.37
12.4046
12.4393
12.4737
12.5074
12.5395
12.5695
12.5961
12.6183
12.6348
12.6442
12.6452
12.6368
12.6186
12.5864
12.5346
11.6977
11.6481
11.6181
11.6017
11.594
11.5942
11.601
11.613
11.6291
11.6483
11.6698
11.693
11.7175
11.7429
11.769
11.7956
11.8227
11.85
11.8777
11.9056
11.9337
11.9621
11.9908
12.0199
12.0492
12.079
12.1093
12.1401
12.1716
12.2037
12.2367
12.2704
12.3051
12.3406
12.377
12.4141
12.4518
12.4897
12.5274
12.5642
12.5992
12.6314
12.6593
12.6815
12.6963
12.7017
12.6965
12.6798
12.6466
12.5903
11.632
11.5779
11.5471
11.5324
11.5282
11.5331
11.5452
11.5629
11.5845
11.609
11.6354
11.6631
11.6916
11.7205
11.7497
11.779
11.8083
11.8377
11.8671
11.8964
11.9258
11.9554
11.985
12.0149
12.045
12.0755
12.1065
12.138
12.1702
12.2033
12.2372
12.2722
12.3083
12.3456
12.3842
12.4239
12.4648
12.5066
12.5487
12.5908
12.6317
12.6705
12.7055
12.7349
12.7565
12.7681
12.7675
12.7533
12.7192
12.6578
11.5539
11.4943
11.463
11.4514
11.4525
11.4639
11.4832
11.5081
11.5367
11.5677
11.5999
11.6327
11.6657
11.6985
11.731
11.7632
11.7949
11.8263
11.8574
11.8882
11.9188
11.9493
11.9798
12.0104
12.0413
12.0724
12.104
12.1361
12.1691
12.2029
12.2378
12.2739
12.3114
12.3505
12.3913
12.4338
12.4781
12.5239
12.5711
12.619
12.6668
12.7133
12.7568
12.7953
12.826
12.8458
12.8519
12.8417
12.8075
12.74
11.4602
11.3939
11.363
11.3566
11.3654
11.386
11.4149
11.4492
11.4865
11.5252
11.5642
11.6029
11.6408
11.6778
11.7139
11.7489
11.783
11.8164
11.8491
11.8812
11.9129
11.9443
11.9756
12.0068
12.0382
12.0698
12.1019
12.1346
12.1681
12.2026
12.2383
12.2755
12.3144
12.3552
12.3981
12.4434
12.4912
12.5414
12.5939
12.6483
12.7039
12.7595
12.8134
12.8631
12.9055
12.9366
12.9523
12.9486
12.9154
12.8408
11.3463
11.2718
11.2429
11.2451
11.2656
11.299
11.3408
11.387
11.4349
11.4828
11.5296
11.5748
11.6181
11.6594
11.699
11.7369
11.7733
11.8085
11.8426
11.8759
11.9085
11.9407
11.9725
12.0042
12.0359
12.0679
12.1004
12.1334
12.1674
12.2024
12.2388
12.2769
12.317
12.3594
12.4044
12.4524
12.5036
12.5583
12.6165
12.678
12.7423
12.8084
12.8746
12.9384
12.9959
13.0423
13.072
13.0788
13.0487
12.9657
11.2047
11.1207
11.0973
11.1137
11.1516
11.203
11.2617
11.3229
11.3836
11.4422
11.4977
11.5499
11.5987
11.6445
11.6875
11.728
11.7665
11.8032
11.8385
11.8727
11.9059
11.9385
11.9707
12.0027
12.0346
12.0668
12.0994
12.1327
12.1669
12.2023
12.2392
12.278
12.3191
12.3628
12.4097
12.4602
12.5148
12.5739
12.6378
12.7069
12.7807
12.8588
12.9396
13.0206
13.0977
13.1649
13.2148
13.2384
13.2154
13.1234
11.0234
10.9298
10.9187
10.9586
11.0225
11.0988
11.1796
11.2594
11.3353
11.4058
11.4707
11.5301
11.5844
11.6342
11.6802
11.723
11.7631
11.801
11.8371
11.8718
11.9053
11.9381
11.9704
12.0024
12.0343
12.0664
12.099
12.1322
12.1665
12.202
12.2392
12.2785
12.3202
12.365
12.4134
12.4661
12.5237
12.587
12.6567
12.7334
12.8174
12.9086
13.0062
13.1081
13.2102
13.3058
13.3853
13.4357
13.4277
13.3272
10.7815
10.6826
10.6976
10.776
10.8785
10.9889
11.098
11.2002
11.2933
11.3767
11.4511
11.5173
11.5765
11.6298
11.6782
11.7226
11.7637
11.8022
11.8386
11.8734
11.9069
11.9396
11.9716
12.0033
12.0349
12.0668
12.099
12.132
12.1661
12.2015
12.2387
12.278
12.3201
12.3656
12.4151
12.4694
12.5295
12.5965
12.6714
12.7554
12.8496
12.9549
13.0714
13.198
13.3315
13.4651
13.5876
13.6811
13.7033
13.6002
10.4403
10.3542
10.4225
10.5641
10.7229
10.879
11.023
11.1509
11.2623
11.3585
11.4417
11.5138
11.5768
11.6325
11.6823
11.7274
11.7688
11.8072
11.8433
11.8776
11.9107
11.9428
11.9742
12.0054
12.0364
12.0677
12.0994
12.1319
12.1655
12.2005
12.2373
12.2764
12.3184
12.364
12.4139
12.4692
12.5309
12.6006
12.6797
12.7701
12.8739
12.9932
13.1297
13.2845
13.4563
13.6399
13.8242
13.987
14.0688
13.984
9.92837
9.90711
10.0826
10.3258
10.5648
10.7793
10.964
11.1192
11.2484
11.3558
11.4458
11.5218
11.5869
11.6434
11.6932
11.7378
11.7784
11.8159
11.8511
11.8844
11.9165
11.9476
11.9782
12.0084
12.0386
12.0691
12.1
12.1317
12.1645
12.1987
12.2348
12.2732
12.3145
12.3595
12.4091
12.4643
12.5266
12.5975
12.6792
12.7743
12.8858
13.0175
13.1735
13.358
13.574
13.8212
14.0925
14.3652
14.5633
14.5541
9.11536
9.29177
9.67035
10.0708
10.4199
10.7052
10.9333
11.1141
11.2577
11.3726
11.4659
11.5428
11.6074
11.6626
11.7108
11.7536
11.7924
11.8282
11.8617
11.8935
11.9241
11.9539
11.9831
12.0122
12.0413
12.0706
12.1005
12.1311
12.1628
12.1959
12.2309
12.2681
12.3082
12.3519
12.4002
12.4542
12.5154
12.5858
12.6678
12.7647
12.8806
13.0211
13.1933
13.4059
13.6691
13.9928
14.3823
14.8234
15.2376
15.4444
7.70507
8.46817
9.21051
9.8331
10.3189
10.6806
10.9474
11.146
11.2963
11.4122
11.5036
11.5774
11.6383
11.6899
11.7347
11.7743
11.8102
11.8434
11.8745
11.9043
11.933
11.9611
11.9888
12.0164
12.0441
12.0722
12.1007
12.1301
12.1604
12.1921
12.2254
12.2609
12.2991
12.3408
12.3868
12.4383
12.4968
12.5644
12.6437
12.7384
12.8536
12.9965
13.1773
13.4103
13.7158
14.1216
14.6577
15.3348
16.1317
16.9592
4.8683
7.46763
8.88443
9.76685
10.3695
10.7753
11.05
11.2422
11.3816
11.4859
11.5665
11.6307
11.6835
11.7281
11.7668
11.8014
11.8329
11.8624
11.8903
11.9173
11.9435
11.9695
11.9952
12.021
12.0471
12.0735
12.1004
12.128
12.1566
12.1863
12.2175
12.2506
12.2861
12.3245
12.3668
12.4139
12.4672
12.5286
12.6007
12.6869
12.7926
12.9253
13.0968
13.3256
13.6422
14.097
14.7596
15.7149
17.2175
19.934
-7.62252e-05
6.3846
9.04808
10.1421
10.7332
11.0815
11.295
11.4355
11.5343
11.6077
11.6645
11.7103
11.7484
11.7814
11.8107
11.8376
11.8628
11.887
11.9104
11.9336
11.9566
11.9797
12.0029
12.0264
12.0502
12.0744
12.0992
12.1246
12.1507
12.1778
12.2061
12.2357
12.2671
12.3008
12.3373
12.3774
12.4222
12.4729
12.5316
12.6007
12.6842
12.7878
12.9209
13.1001
13.3575
13.757
14.4154
15.6046
18.3843
24.8928
)
;

boundaryField
{
    movingWallTop
    {
        type            zeroGradient;
    }
    movingWallBottom
    {
        type            zeroGradient;
    }
    fixedWalls
    {
        type            zeroGradient;
    }
    frontAndBack
    {
        type            empty;
    }
}


// ************************************************************************* //
