/*--------------------------------*- C++ -*----------------------------------*\
  =========                 |
  \\      /  F ield         | OpenFOAM: The Open Source CFD Toolbox
   \\    /   O peration     | Website:  https://openfoam.org
    \\  /    A nd           | Version:  7
     \\/     M anipulation  |
\*---------------------------------------------------------------------------*/
FoamFile
{
    version     2.0;
    format      ascii;
    class       volScalarField;
    location    "0.047";
    object      p;
}
// * * * * * * * * * * * * * * * * * * * * * * * * * * * * * * * * * * * * * //

dimensions      [0 2 -2 0 0 0 0];

internalField   nonuniform List<scalar> 
2500
(
-3.01257e-05
-6.512
-9.29712
-10.4929
-11.1583
-11.5645
-11.828
-12.0127
-12.1503
-12.2572
-12.3428
-12.4128
-12.4709
-12.5196
-12.5608
-12.5958
-12.6257
-12.6512
-12.6731
-12.6917
-12.7077
-12.7213
-12.7329
-12.7429
-12.7515
-12.7591
-12.766
-12.7724
-12.7788
-12.7854
-12.7927
-12.8011
-12.811
-12.8231
-12.838
-12.8565
-12.8796
-12.9086
-12.9452
-12.9918
-13.0518
-13.1305
-13.2367
-13.3859
-13.6089
-13.9669
-14.5667
-15.6675
-18.3347
-24.7195
-4.95556
-7.67553
-9.18229
-10.1424
-10.8102
-11.2703
-11.5919
-11.8252
-12.0006
-12.1363
-12.244
-12.3311
-12.4029
-12.4627
-12.513
-12.5558
-12.5923
-12.6236
-12.6506
-12.674
-12.6943
-12.7119
-12.7274
-12.7411
-12.7535
-12.7648
-12.7754
-12.7857
-12.796
-12.8069
-12.8187
-12.832
-12.8474
-12.8656
-12.8874
-12.9139
-12.9465
-12.987
-13.0377
-13.1021
-13.1848
-13.2932
-13.4382
-13.6375
-13.9199
-14.3335
-14.9434
-15.8315
-17.2516
-19.8506
-7.92506
-8.7575
-9.55852
-10.2396
-10.7799
-11.19
-11.4997
-11.7365
-11.9206
-12.0662
-12.1834
-12.2791
-12.3583
-12.4246
-12.4806
-12.5284
-12.5694
-12.6047
-12.6354
-12.6621
-12.6855
-12.7062
-12.7245
-12.741
-12.7561
-12.7701
-12.7835
-12.7967
-12.81
-12.8239
-12.839
-12.8559
-12.8751
-12.8975
-12.924
-12.9558
-12.9944
-13.0417
-13.1003
-13.1737
-13.2666
-13.3858
-13.541
-13.7456
-14.0192
-14.3881
-14.8804
-15.5083
-16.2539
-17.0173
-9.43456
-9.64792
-10.067
-10.5121
-10.9052
-11.2324
-11.499
-11.7149
-11.8899
-12.0329
-12.1505
-12.2483
-12.3304
-12.3998
-12.459
-12.5098
-12.5536
-12.5917
-12.625
-12.6542
-12.6799
-12.7029
-12.7235
-12.7422
-12.7594
-12.7756
-12.7911
-12.8065
-12.8221
-12.8384
-12.856
-12.8754
-12.8974
-12.9227
-12.9523
-12.9874
-13.0294
-13.0803
-13.1423
-13.2186
-13.313
-13.4309
-13.5789
-13.7654
-14.0001
-14.2924
-14.6478
-15.0537
-15.4359
-15.6137
-10.3201
-10.3195
-10.5235
-10.8004
-11.0752
-11.3254
-11.5442
-11.7313
-11.8897
-12.0233
-12.1364
-12.2323
-12.3141
-12.3842
-12.4447
-12.4971
-12.5427
-12.5826
-12.6177
-12.6488
-12.6764
-12.7011
-12.7235
-12.744
-12.7631
-12.781
-12.7984
-12.8156
-12.833
-12.8512
-12.8707
-12.8921
-12.9161
-12.9434
-12.975
-13.012
-13.0558
-13.1079
-13.1704
-13.2457
-13.3367
-13.447
-13.5805
-13.7414
-13.9326
-14.1541
-14.3997
-14.6486
-14.8283
-14.8098
-10.8867
-10.8125
-10.9012
-11.0688
-11.2568
-11.4432
-11.6174
-11.7742
-11.9126
-12.0333
-12.1383
-12.2294
-12.3085
-12.3773
-12.4375
-12.4901
-12.5364
-12.5773
-12.6135
-12.6458
-12.6747
-12.7008
-12.7245
-12.7464
-12.7668
-12.7862
-12.8049
-12.8235
-12.8424
-12.8619
-12.8828
-12.9055
-12.9308
-12.9592
-12.9918
-13.0294
-13.0733
-13.1248
-13.1853
-13.2568
-13.3411
-13.4403
-13.5562
-13.69
-13.8407
-14.0038
-14.1695
-14.3171
-14.3906
-14.3089
-11.2688
-11.1777
-11.208
-11.3071
-11.4336
-11.5701
-11.7058
-11.8341
-11.9519
-12.0583
-12.1532
-12.2375
-12.3121
-12.3781
-12.4366
-12.4884
-12.5344
-12.5754
-12.612
-12.6449
-12.6745
-12.7014
-12.7261
-12.7489
-12.7703
-12.7906
-12.8104
-12.8299
-12.8497
-12.8702
-12.8919
-12.9153
-12.9411
-12.9699
-13.0025
-13.0397
-13.0824
-13.1317
-13.1887
-13.2546
-13.3303
-13.417
-13.5148
-13.6231
-13.7391
-13.8568
-13.9664
-14.0514
-14.0724
-13.9797
-11.5419
-11.4546
-11.4557
-11.5124
-11.5966
-11.6953
-11.7996
-11.9029
-12.0015
-12.0934
-12.1776
-12.2541
-12.3232
-12.3853
-12.441
-12.491
-12.536
-12.5763
-12.6127
-12.6456
-12.6755
-12.7028
-12.7279
-12.7513
-12.7732
-12.7942
-12.8145
-12.8347
-12.855
-12.8759
-12.898
-12.9216
-12.9474
-12.9758
-13.0077
-13.0436
-13.0842
-13.1304
-13.1828
-13.2421
-13.3087
-13.3828
-13.4637
-13.5499
-13.6378
-13.7216
-13.793
-13.84
-13.8359
-13.7503
-11.7476
-11.6697
-11.6566
-11.6873
-11.7425
-11.8134
-11.8928
-11.9752
-12.0567
-12.1349
-12.2086
-12.2769
-12.3398
-12.3973
-12.4497
-12.4973
-12.5404
-12.5796
-12.6152
-12.6477
-12.6773
-12.7046
-12.7298
-12.7533
-12.7755
-12.7967
-12.8173
-12.8376
-12.8581
-12.8791
-12.901
-12.9244
-12.9497
-12.9773
-13.0078
-13.0418
-13.0798
-13.1222
-13.1696
-13.2221
-13.2798
-13.3422
-13.4083
-13.476
-13.542
-13.6012
-13.6469
-13.671
-13.6556
-13.5813
-11.909
-11.8408
-11.8213
-11.8358
-11.8714
-11.9219
-11.9821
-12.0472
-12.114
-12.18
-12.2436
-12.304
-12.3606
-12.4131
-12.4616
-12.5063
-12.5472
-12.5848
-12.6192
-12.6507
-12.6798
-12.7066
-12.7315
-12.7548
-12.7769
-12.798
-12.8185
-12.8387
-12.859
-12.8797
-12.9013
-12.924
-12.9484
-12.9748
-13.0036
-13.0354
-13.0703
-13.1088
-13.151
-13.1969
-13.2462
-13.2983
-13.3518
-13.4047
-13.4539
-13.4954
-13.5241
-13.5345
-13.5146
-13.4514
-12.0394
-11.98
-11.9578
-11.9625
-11.9847
-12.0204
-12.0657
-12.1169
-12.1713
-12.2265
-12.281
-12.3338
-12.3841
-12.4316
-12.476
-12.5174
-12.5558
-12.5913
-12.6241
-12.6544
-12.6825
-12.7086
-12.7329
-12.7557
-12.7774
-12.7981
-12.8183
-12.8381
-12.8579
-12.8781
-12.8989
-12.9207
-12.9439
-12.9688
-12.9957
-13.025
-13.0568
-13.0913
-13.1285
-13.1683
-13.2101
-13.2532
-13.2963
-13.3374
-13.3741
-13.4029
-13.4203
-13.4227
-13.4017
-13.3482
-12.1471
-12.0951
-12.0724
-12.0711
-12.0841
-12.1091
-12.143
-12.1831
-12.2271
-12.273
-12.3193
-12.365
-12.4094
-12.4519
-12.4922
-12.5302
-12.5657
-12.5989
-12.6299
-12.6586
-12.6855
-12.7105
-12.7339
-12.756
-12.777
-12.7971
-12.8166
-12.8358
-12.8549
-12.8743
-12.8942
-12.9149
-12.9367
-12.9599
-12.9848
-13.0114
-13.0401
-13.0708
-13.1034
-13.1376
-13.1729
-13.2085
-13.243
-13.275
-13.3022
-13.3221
-13.3321
-13.3299
-13.3095
-13.2641
-12.2376
-12.192
-12.1698
-12.1648
-12.1716
-12.1887
-12.214
-12.2452
-12.2806
-12.3185
-12.3576
-12.397
-12.4357
-12.4734
-12.5096
-12.544
-12.5766
-12.6074
-12.6362
-12.6632
-12.6885
-12.7123
-12.7346
-12.7557
-12.7758
-12.795
-12.8137
-12.832
-12.8503
-12.8687
-12.8874
-12.9069
-12.9272
-12.9486
-12.9713
-12.9955
-13.0212
-13.0483
-13.0766
-13.1059
-13.1356
-13.1649
-13.1926
-13.2175
-13.2376
-13.2512
-13.2564
-13.2517
-13.2327
-13.1941
-12.3147
-12.2745
-12.2534
-12.2462
-12.2489
-12.2602
-12.2788
-12.3031
-12.3314
-12.3625
-12.3953
-12.4289
-12.4625
-12.4955
-12.5277
-12.5587
-12.5883
-12.6164
-12.6429
-12.668
-12.6916
-12.7139
-12.7349
-12.7548
-12.7738
-12.7921
-12.8097
-12.827
-12.8442
-12.8615
-12.879
-12.8971
-12.9158
-12.9354
-12.956
-12.9778
-13.0006
-13.0244
-13.049
-13.074
-13.0989
-13.123
-13.1453
-13.1646
-13.1796
-13.1888
-13.1909
-13.185
-13.1676
-13.1348
-12.3812
-12.3456
-12.3259
-12.3176
-12.3174
-12.3246
-12.3381
-12.3568
-12.3793
-12.4047
-12.432
-12.4604
-12.4892
-12.518
-12.5463
-12.5739
-12.6004
-12.6259
-12.6501
-12.6731
-12.6949
-12.7155
-12.735
-12.7536
-12.7713
-12.7884
-12.8049
-12.821
-12.837
-12.853
-12.8692
-12.8858
-12.903
-12.9208
-12.9393
-12.9587
-12.9789
-12.9997
-13.0209
-13.0423
-13.0632
-13.083
-13.101
-13.1161
-13.1272
-13.1334
-13.1336
-13.1272
-13.1117
-13.0838
-12.439
-12.4076
-12.3894
-12.3806
-12.3785
-12.3827
-12.3923
-12.4065
-12.4243
-12.4449
-12.4674
-12.4912
-12.5158
-12.5406
-12.5652
-12.5894
-12.613
-12.6357
-12.6575
-12.6784
-12.6982
-12.717
-12.735
-12.7521
-12.7684
-12.7841
-12.7994
-12.8143
-12.829
-12.8436
-12.8584
-12.8735
-12.889
-12.905
-12.9216
-12.9388
-12.9565
-12.9746
-12.9929
-13.0111
-13.0286
-13.045
-13.0595
-13.0713
-13.0797
-13.0837
-13.0828
-13.0766
-13.063
-13.0393
-12.4897
-12.462
-12.4454
-12.4366
-12.4334
-12.4354
-12.442
-12.4527
-12.4666
-12.4831
-12.5015
-12.5213
-12.5419
-12.563
-12.5842
-12.6053
-12.6259
-12.6459
-12.6653
-12.6839
-12.7017
-12.7187
-12.7349
-12.7504
-12.7653
-12.7796
-12.7934
-12.807
-12.8203
-12.8336
-12.8469
-12.8605
-12.8743
-12.8886
-12.9032
-12.9183
-12.9338
-12.9495
-12.9652
-12.9806
-12.9953
-13.0089
-13.0206
-13.03
-13.0363
-13.039
-13.0375
-13.0317
-13.0199
-13
-12.5346
-12.5103
-12.4953
-12.4869
-12.4829
-12.4834
-12.4878
-12.4956
-12.5063
-12.5194
-12.5342
-12.5504
-12.5676
-12.5853
-12.6033
-12.6212
-12.639
-12.6565
-12.6734
-12.6898
-12.7055
-12.7206
-12.735
-12.7488
-12.7621
-12.7749
-12.7873
-12.7993
-12.8112
-12.8231
-12.8349
-12.8469
-12.8591
-12.8717
-12.8845
-12.8976
-12.911
-12.9245
-12.9379
-12.9509
-12.9633
-12.9745
-12.984
-12.9915
-12.9964
-12.9981
-12.9965
-12.9913
-12.9814
-12.9649
-12.5747
-12.5535
-12.5402
-12.5322
-12.528
-12.5274
-12.5301
-12.5357
-12.5438
-12.5539
-12.5657
-12.5787
-12.5927
-12.6073
-12.6223
-12.6374
-12.6525
-12.6673
-12.6819
-12.696
-12.7096
-12.7228
-12.7354
-12.7475
-12.7591
-12.7703
-12.7811
-12.7917
-12.8021
-12.8124
-12.8227
-12.8331
-12.8437
-12.8545
-12.8656
-12.8769
-12.8883
-12.8998
-12.9111
-12.9221
-12.9324
-12.9416
-12.9494
-12.9554
-12.9592
-12.9605
-12.959
-12.9546
-12.9465
-12.9331
-12.6108
-12.5925
-12.5808
-12.5736
-12.5693
-12.568
-12.5694
-12.5733
-12.5792
-12.5868
-12.5959
-12.6062
-12.6173
-12.6291
-12.6413
-12.6537
-12.6661
-12.6785
-12.6907
-12.7026
-12.7142
-12.7253
-12.7361
-12.7464
-12.7563
-12.7658
-12.7751
-12.7841
-12.7929
-12.8017
-12.8104
-12.8193
-12.8282
-12.8373
-12.8467
-12.8562
-12.8658
-12.8754
-12.8848
-12.8939
-12.9025
-12.9101
-12.9165
-12.9214
-12.9244
-12.9254
-12.9242
-12.9207
-12.9143
-12.9039
-12.6436
-12.6281
-12.6181
-12.6116
-12.6075
-12.6058
-12.6063
-12.6087
-12.6128
-12.6183
-12.6251
-12.6329
-12.6414
-12.6506
-12.6602
-12.6701
-12.6801
-12.6901
-12.7
-12.7098
-12.7192
-12.7284
-12.7372
-12.7457
-12.7539
-12.7618
-12.7694
-12.7768
-12.784
-12.7912
-12.7983
-12.8055
-12.8128
-12.8203
-12.8279
-12.8356
-12.8435
-12.8513
-12.859
-12.8665
-12.8734
-12.8796
-12.8848
-12.8888
-12.8914
-12.8923
-12.8915
-12.889
-12.8843
-12.8767
-12.6737
-12.661
-12.6525
-12.6469
-12.6432
-12.6413
-12.641
-12.6423
-12.6449
-12.6486
-12.6534
-12.6589
-12.6652
-12.672
-12.6792
-12.6867
-12.6943
-12.7021
-12.7098
-12.7174
-12.7248
-12.732
-12.739
-12.7457
-12.7521
-12.7582
-12.7641
-12.7699
-12.7755
-12.781
-12.7865
-12.792
-12.7976
-12.8034
-12.8093
-12.8153
-12.8214
-12.8276
-12.8337
-12.8396
-12.8451
-12.85
-12.8542
-12.8575
-12.8597
-12.8607
-12.8604
-12.8589
-12.8559
-12.8509
-12.7017
-12.6916
-12.6847
-12.6801
-12.6768
-12.6748
-12.6741
-12.6745
-12.6758
-12.678
-12.6809
-12.6845
-12.6886
-12.6932
-12.6982
-12.7034
-12.7089
-12.7144
-12.72
-12.7256
-12.731
-12.7363
-12.7413
-12.7462
-12.7508
-12.7552
-12.7594
-12.7635
-12.7674
-12.7712
-12.775
-12.7788
-12.7828
-12.7868
-12.7909
-12.7952
-12.7997
-12.8042
-12.8086
-12.813
-12.8172
-12.821
-12.8243
-12.827
-12.8289
-12.8301
-12.8304
-12.8299
-12.8286
-12.8261
-12.7281
-12.7205
-12.7153
-12.7116
-12.7089
-12.707
-12.7059
-12.7055
-12.7057
-12.7065
-12.7078
-12.7096
-12.7118
-12.7144
-12.7173
-12.7204
-12.7238
-12.7272
-12.7308
-12.7343
-12.7378
-12.7412
-12.7444
-12.7474
-12.7503
-12.7529
-12.7554
-12.7577
-12.7599
-12.762
-12.764
-12.7661
-12.7682
-12.7705
-12.7729
-12.7754
-12.7781
-12.7809
-12.7838
-12.7868
-12.7896
-12.7923
-12.7948
-12.7969
-12.7986
-12.8
-12.8009
-12.8015
-12.8018
-12.8019
-12.7533
-12.7482
-12.7446
-12.742
-12.7398
-12.738
-12.7367
-12.7357
-12.7349
-12.7345
-12.7343
-12.7344
-12.7349
-12.7355
-12.7365
-12.7376
-12.739
-12.7405
-12.742
-12.7436
-12.7452
-12.7467
-12.7481
-12.7493
-12.7504
-12.7513
-12.752
-12.7525
-12.753
-12.7533
-12.7535
-12.7538
-12.7541
-12.7546
-12.7551
-12.7558
-12.7568
-12.7579
-12.7592
-12.7606
-12.7621
-12.7637
-12.7653
-12.7669
-12.7685
-12.77
-12.7716
-12.7732
-12.7751
-12.7777
-12.7777
-12.7751
-12.7732
-12.7716
-12.77
-12.7685
-12.7669
-12.7653
-12.7637
-12.7621
-12.7606
-12.7592
-12.7579
-12.7568
-12.7558
-12.7551
-12.7546
-12.7541
-12.7538
-12.7535
-12.7533
-12.753
-12.7525
-12.752
-12.7513
-12.7504
-12.7493
-12.7481
-12.7467
-12.7452
-12.7436
-12.742
-12.7405
-12.739
-12.7376
-12.7365
-12.7355
-12.7349
-12.7344
-12.7343
-12.7345
-12.7349
-12.7357
-12.7367
-12.738
-12.7398
-12.742
-12.7446
-12.7482
-12.7533
-12.8019
-12.8018
-12.8015
-12.8009
-12.8
-12.7986
-12.7969
-12.7948
-12.7923
-12.7896
-12.7868
-12.7838
-12.7809
-12.7781
-12.7754
-12.7729
-12.7705
-12.7682
-12.7661
-12.764
-12.762
-12.7599
-12.7577
-12.7554
-12.7529
-12.7503
-12.7474
-12.7444
-12.7412
-12.7378
-12.7343
-12.7308
-12.7272
-12.7238
-12.7204
-12.7173
-12.7144
-12.7118
-12.7096
-12.7078
-12.7065
-12.7057
-12.7055
-12.7059
-12.707
-12.7088
-12.7116
-12.7153
-12.7205
-12.7281
-12.8261
-12.8286
-12.8299
-12.8304
-12.8301
-12.8289
-12.827
-12.8243
-12.821
-12.8172
-12.813
-12.8087
-12.8042
-12.7997
-12.7952
-12.7909
-12.7868
-12.7828
-12.7788
-12.775
-12.7712
-12.7674
-12.7635
-12.7594
-12.7552
-12.7508
-12.7462
-12.7413
-12.7363
-12.731
-12.7256
-12.72
-12.7144
-12.7089
-12.7034
-12.6982
-12.6932
-12.6886
-12.6845
-12.6809
-12.678
-12.6758
-12.6744
-12.6741
-12.6748
-12.6768
-12.6801
-12.6847
-12.6915
-12.7017
-12.8509
-12.8559
-12.8589
-12.8604
-12.8607
-12.8597
-12.8575
-12.8542
-12.85
-12.8451
-12.8396
-12.8337
-12.8276
-12.8214
-12.8153
-12.8093
-12.8034
-12.7976
-12.792
-12.7865
-12.781
-12.7755
-12.7699
-12.7641
-12.7582
-12.7521
-12.7457
-12.739
-12.732
-12.7248
-12.7174
-12.7098
-12.7021
-12.6943
-12.6867
-12.6792
-12.672
-12.6652
-12.6589
-12.6534
-12.6486
-12.6449
-12.6423
-12.641
-12.6412
-12.6432
-12.6469
-12.6525
-12.6609
-12.6737
-12.8767
-12.8843
-12.889
-12.8915
-12.8923
-12.8914
-12.8888
-12.8849
-12.8796
-12.8734
-12.8665
-12.859
-12.8513
-12.8435
-12.8356
-12.8279
-12.8203
-12.8128
-12.8055
-12.7983
-12.7912
-12.784
-12.7768
-12.7694
-12.7618
-12.7539
-12.7457
-12.7372
-12.7284
-12.7192
-12.7098
-12.7
-12.6901
-12.6801
-12.6701
-12.6602
-12.6506
-12.6414
-12.6329
-12.6251
-12.6183
-12.6128
-12.6087
-12.6063
-12.6058
-12.6075
-12.6116
-12.6181
-12.6281
-12.6436
-12.9039
-12.9143
-12.9207
-12.9242
-12.9254
-12.9244
-12.9214
-12.9165
-12.9101
-12.9025
-12.894
-12.8848
-12.8754
-12.8658
-12.8562
-12.8467
-12.8373
-12.8282
-12.8193
-12.8104
-12.8017
-12.7929
-12.7841
-12.7751
-12.7658
-12.7563
-12.7464
-12.7361
-12.7253
-12.7142
-12.7026
-12.6907
-12.6785
-12.6661
-12.6537
-12.6412
-12.6291
-12.6173
-12.6062
-12.5959
-12.5868
-12.5792
-12.5733
-12.5694
-12.568
-12.5693
-12.5736
-12.5808
-12.5925
-12.6108
-12.9331
-12.9465
-12.9546
-12.959
-12.9605
-12.9592
-12.9554
-12.9494
-12.9416
-12.9324
-12.9221
-12.9111
-12.8998
-12.8883
-12.8769
-12.8656
-12.8545
-12.8437
-12.8331
-12.8227
-12.8124
-12.8021
-12.7917
-12.7811
-12.7703
-12.7591
-12.7475
-12.7354
-12.7228
-12.7096
-12.696
-12.6819
-12.6673
-12.6525
-12.6374
-12.6223
-12.6073
-12.5927
-12.5787
-12.5657
-12.5539
-12.5438
-12.5357
-12.5301
-12.5274
-12.528
-12.5322
-12.5402
-12.5535
-12.5747
-12.9649
-12.9814
-12.9913
-12.9965
-12.9981
-12.9964
-12.9915
-12.984
-12.9745
-12.9633
-12.9509
-12.9379
-12.9245
-12.911
-12.8976
-12.8845
-12.8717
-12.8591
-12.8469
-12.8349
-12.8231
-12.8112
-12.7993
-12.7873
-12.7749
-12.7621
-12.7488
-12.735
-12.7206
-12.7055
-12.6898
-12.6734
-12.6565
-12.639
-12.6212
-12.6033
-12.5853
-12.5676
-12.5504
-12.5342
-12.5194
-12.5063
-12.4956
-12.4878
-12.4834
-12.4829
-12.4868
-12.4953
-12.5103
-12.5346
-13
-13.0199
-13.0317
-13.0375
-13.039
-13.0363
-13.03
-13.0206
-13.0089
-12.9953
-12.9806
-12.9652
-12.9495
-12.9338
-12.9183
-12.9032
-12.8886
-12.8743
-12.8605
-12.8469
-12.8336
-12.8203
-12.8069
-12.7934
-12.7796
-12.7653
-12.7504
-12.7349
-12.7187
-12.7017
-12.6839
-12.6653
-12.6459
-12.6259
-12.6052
-12.5842
-12.563
-12.5419
-12.5213
-12.5015
-12.4831
-12.4666
-12.4527
-12.442
-12.4354
-12.4334
-12.4366
-12.4454
-12.462
-12.4897
-13.0393
-13.063
-13.0766
-13.0828
-13.0838
-13.0797
-13.0713
-13.0595
-13.045
-13.0286
-13.0111
-12.9929
-12.9746
-12.9565
-12.9388
-12.9216
-12.905
-12.889
-12.8735
-12.8584
-12.8436
-12.829
-12.8143
-12.7994
-12.7841
-12.7684
-12.7521
-12.735
-12.717
-12.6982
-12.6784
-12.6575
-12.6357
-12.613
-12.5894
-12.5652
-12.5406
-12.5158
-12.4912
-12.4674
-12.4449
-12.4243
-12.4065
-12.3923
-12.3827
-12.3785
-12.3806
-12.3894
-12.4076
-12.439
-13.0838
-13.1117
-13.1272
-13.1336
-13.1334
-13.1272
-13.1161
-13.101
-13.083
-13.0632
-13.0423
-13.0209
-12.9997
-12.9789
-12.9587
-12.9393
-12.9208
-12.903
-12.8858
-12.8692
-12.853
-12.837
-12.821
-12.8049
-12.7884
-12.7713
-12.7536
-12.735
-12.7155
-12.6949
-12.6731
-12.6501
-12.6259
-12.6004
-12.5739
-12.5463
-12.518
-12.4892
-12.4604
-12.432
-12.4047
-12.3793
-12.3568
-12.3381
-12.3246
-12.3174
-12.3176
-12.3259
-12.3456
-12.3812
-13.1348
-13.1676
-13.185
-13.1909
-13.1888
-13.1796
-13.1646
-13.1453
-13.123
-13.0989
-13.074
-13.049
-13.0244
-13.0006
-12.9778
-12.956
-12.9354
-12.9158
-12.8971
-12.879
-12.8615
-12.8442
-12.827
-12.8097
-12.7921
-12.7738
-12.7548
-12.7349
-12.7139
-12.6916
-12.668
-12.6429
-12.6164
-12.5883
-12.5587
-12.5277
-12.4955
-12.4625
-12.4289
-12.3953
-12.3625
-12.3314
-12.3031
-12.2788
-12.2602
-12.2489
-12.2462
-12.2534
-12.2745
-12.3147
-13.1941
-13.2327
-13.2517
-13.2564
-13.2512
-13.2376
-13.2175
-13.1926
-13.1649
-13.1356
-13.1059
-13.0766
-13.0483
-13.0212
-12.9955
-12.9713
-12.9486
-12.9272
-12.9069
-12.8874
-12.8687
-12.8503
-12.832
-12.8137
-12.795
-12.7758
-12.7557
-12.7346
-12.7123
-12.6885
-12.6632
-12.6362
-12.6073
-12.5766
-12.544
-12.5096
-12.4734
-12.4357
-12.3969
-12.3576
-12.3185
-12.2806
-12.2452
-12.2139
-12.1887
-12.1716
-12.1648
-12.1698
-12.192
-12.2376
-13.2641
-13.3095
-13.3299
-13.3321
-13.3221
-13.3022
-13.275
-13.243
-13.2085
-13.1729
-13.1376
-13.1034
-13.0708
-13.0401
-13.0114
-12.9848
-12.9599
-12.9367
-12.9149
-12.8942
-12.8743
-12.8549
-12.8358
-12.8166
-12.7971
-12.777
-12.756
-12.7339
-12.7105
-12.6855
-12.6586
-12.6299
-12.5989
-12.5657
-12.5302
-12.4922
-12.4519
-12.4094
-12.365
-12.3193
-12.273
-12.2271
-12.1831
-12.143
-12.1091
-12.0841
-12.0711
-12.0724
-12.0951
-12.1471
-13.3482
-13.4017
-13.4227
-13.4203
-13.4029
-13.3741
-13.3374
-13.2963
-13.2532
-13.2101
-13.1683
-13.1285
-13.0913
-13.0568
-13.025
-12.9957
-12.9688
-12.9439
-12.9207
-12.8989
-12.8781
-12.8579
-12.8381
-12.8183
-12.7981
-12.7774
-12.7557
-12.7329
-12.7086
-12.6825
-12.6544
-12.6241
-12.5913
-12.5558
-12.5174
-12.476
-12.4316
-12.3841
-12.3338
-12.281
-12.2265
-12.1713
-12.1169
-12.0657
-12.0204
-11.9847
-11.9625
-11.9578
-11.9799
-12.0393
-13.4514
-13.5146
-13.5345
-13.5241
-13.4954
-13.4539
-13.4047
-13.3518
-13.2983
-13.2462
-13.1969
-13.151
-13.1088
-13.0703
-13.0354
-13.0036
-12.9748
-12.9484
-12.924
-12.9013
-12.8797
-12.859
-12.8387
-12.8185
-12.798
-12.7769
-12.7548
-12.7315
-12.7066
-12.6798
-12.6507
-12.6192
-12.5848
-12.5472
-12.5063
-12.4616
-12.4131
-12.3606
-12.304
-12.2436
-12.18
-12.114
-12.0472
-11.9821
-11.9219
-11.8714
-11.8358
-11.8213
-11.8408
-11.909
-13.5813
-13.6556
-13.671
-13.6469
-13.6012
-13.542
-13.476
-13.4083
-13.3422
-13.2798
-13.2221
-13.1696
-13.1222
-13.0798
-13.0418
-13.0078
-12.9773
-12.9497
-12.9244
-12.901
-12.8791
-12.8581
-12.8376
-12.8173
-12.7967
-12.7755
-12.7533
-12.7298
-12.7046
-12.6773
-12.6477
-12.6152
-12.5796
-12.5404
-12.4973
-12.4497
-12.3973
-12.3398
-12.2769
-12.2085
-12.1349
-12.0567
-11.9752
-11.8928
-11.8134
-11.7425
-11.6873
-11.6566
-11.6697
-11.7476
-13.7503
-13.8359
-13.84
-13.793
-13.7216
-13.6378
-13.5499
-13.4637
-13.3828
-13.3087
-13.2421
-13.1828
-13.1304
-13.0842
-13.0436
-13.0077
-12.9758
-12.9474
-12.9216
-12.898
-12.8759
-12.855
-12.8347
-12.8145
-12.7942
-12.7732
-12.7513
-12.7279
-12.7028
-12.6755
-12.6456
-12.6127
-12.5763
-12.536
-12.491
-12.441
-12.3853
-12.3232
-12.2541
-12.1776
-12.0934
-12.0015
-11.9029
-11.7996
-11.6953
-11.5966
-11.5124
-11.4557
-11.4546
-11.5419
-13.9797
-14.0724
-14.0514
-13.9664
-13.8568
-13.7391
-13.6231
-13.5148
-13.417
-13.3304
-13.2546
-13.1887
-13.1317
-13.0824
-13.0397
-13.0025
-12.9699
-12.9411
-12.9153
-12.8919
-12.8702
-12.8497
-12.8299
-12.8104
-12.7906
-12.7703
-12.7489
-12.7261
-12.7014
-12.6745
-12.6449
-12.612
-12.5754
-12.5344
-12.4884
-12.4366
-12.3781
-12.3121
-12.2375
-12.1532
-12.0582
-11.9519
-11.8341
-11.7058
-11.5701
-11.4336
-11.3071
-11.208
-11.1777
-11.2688
-14.3089
-14.3906
-14.3171
-14.1695
-14.0038
-13.8407
-13.69
-13.5562
-13.4403
-13.3411
-13.2568
-13.1853
-13.1248
-13.0733
-13.0294
-12.9918
-12.9592
-12.9308
-12.9055
-12.8828
-12.8619
-12.8424
-12.8235
-12.8049
-12.7862
-12.7668
-12.7464
-12.7245
-12.7008
-12.6747
-12.6458
-12.6135
-12.5773
-12.5364
-12.4901
-12.4374
-12.3773
-12.3085
-12.2293
-12.1383
-12.0333
-11.9126
-11.7742
-11.6174
-11.4432
-11.2568
-11.0688
-10.9012
-10.8124
-10.8867
-14.8098
-14.8283
-14.6486
-14.3997
-14.1541
-13.9326
-13.7414
-13.5805
-13.447
-13.3367
-13.2457
-13.1704
-13.1079
-13.0558
-13.012
-12.975
-12.9434
-12.9161
-12.8921
-12.8707
-12.8512
-12.833
-12.8156
-12.7984
-12.781
-12.7631
-12.744
-12.7235
-12.7011
-12.6764
-12.6488
-12.6177
-12.5826
-12.5427
-12.4971
-12.4447
-12.3842
-12.3141
-12.2323
-12.1363
-12.0233
-11.8896
-11.7313
-11.5442
-11.3254
-11.0752
-10.8004
-10.5235
-10.3195
-10.3201
-15.6137
-15.4359
-15.0537
-14.6478
-14.2924
-14.0001
-13.7654
-13.5789
-13.4309
-13.313
-13.2186
-13.1423
-13.0803
-13.0294
-12.9874
-12.9523
-12.9227
-12.8974
-12.8754
-12.856
-12.8384
-12.8221
-12.8065
-12.7911
-12.7756
-12.7594
-12.7421
-12.7235
-12.7029
-12.6799
-12.6542
-12.625
-12.5917
-12.5536
-12.5098
-12.459
-12.3998
-12.3304
-12.2483
-12.1505
-12.0328
-11.8899
-11.7149
-11.499
-11.2324
-10.9051
-10.5121
-10.067
-9.64791
-9.43455
-17.0173
-16.2539
-15.5083
-14.8804
-14.3881
-14.0192
-13.7456
-13.541
-13.3858
-13.2666
-13.1737
-13.1003
-13.0417
-12.9944
-12.9558
-12.924
-12.8975
-12.8751
-12.8559
-12.839
-12.8239
-12.81
-12.7967
-12.7835
-12.7701
-12.7561
-12.741
-12.7245
-12.7062
-12.6855
-12.6621
-12.6354
-12.6047
-12.5694
-12.5284
-12.4806
-12.4246
-12.3583
-12.2791
-12.1834
-12.0662
-11.9206
-11.7365
-11.4996
-11.19
-10.7799
-10.2396
-9.5585
-8.75749
-7.92505
-19.8506
-17.2516
-15.8315
-14.9434
-14.3335
-13.9199
-13.6375
-13.4382
-13.2932
-13.1848
-13.1021
-13.0377
-12.987
-12.9465
-12.9139
-12.8874
-12.8656
-12.8474
-12.832
-12.8187
-12.8069
-12.796
-12.7857
-12.7754
-12.7648
-12.7535
-12.7411
-12.7274
-12.7119
-12.6943
-12.674
-12.6506
-12.6236
-12.5923
-12.5558
-12.513
-12.4627
-12.4029
-12.3311
-12.244
-12.1363
-12.0006
-11.8252
-11.5919
-11.2703
-10.8102
-10.1424
-9.18228
-7.67552
-4.95554
-24.7195
-18.3347
-15.6675
-14.5667
-13.9669
-13.6089
-13.3859
-13.2367
-13.1306
-13.0518
-12.9918
-12.9452
-12.9086
-12.8796
-12.8565
-12.838
-12.8231
-12.811
-12.8011
-12.7927
-12.7854
-12.7788
-12.7724
-12.766
-12.7591
-12.7515
-12.7429
-12.7329
-12.7213
-12.7077
-12.6917
-12.6731
-12.6512
-12.6257
-12.5958
-12.5608
-12.5196
-12.4709
-12.4128
-12.3428
-12.2572
-12.1503
-12.0127
-11.828
-11.5645
-11.1582
-10.4929
-9.29711
-6.51198
-2.46921e-05
)
;

boundaryField
{
    movingWallTop
    {
        type            zeroGradient;
    }
    movingWallBottom
    {
        type            zeroGradient;
    }
    fixedWalls
    {
        type            zeroGradient;
    }
    frontAndBack
    {
        type            empty;
    }
}


// ************************************************************************* //
