/*--------------------------------*- C++ -*----------------------------------*\
  =========                 |
  \\      /  F ield         | OpenFOAM: The Open Source CFD Toolbox
   \\    /   O peration     | Website:  https://openfoam.org
    \\  /    A nd           | Version:  7
     \\/     M anipulation  |
\*---------------------------------------------------------------------------*/
FoamFile
{
    version     2.0;
    format      ascii;
    class       volVectorField;
    location    "0.047";
    object      U;
}
// * * * * * * * * * * * * * * * * * * * * * * * * * * * * * * * * * * * * * //

dimensions      [0 1 -1 0 0 0 0];

internalField   nonuniform List<vector> 
2500
(
(-0.293803 0.153725 0)
(-0.397943 0.128723 0)
(-0.577979 0.073792 0)
(-0.696259 0.0408719 0)
(-0.765226 0.0233895 0)
(-0.809537 0.0141352 0)
(-0.840097 0.00914893 0)
(-0.862154 0.00634066 0)
(-0.878744 0.00465156 0)
(-0.891651 0.00356171 0)
(-0.901948 0.00281294 0)
(-0.910317 0.00227126 0)
(-0.917211 0.00186287 0)
(-0.922943 0.00154446 0)
(-0.927739 0.00128908 0)
(-0.931762 0.00107907 0)
(-0.935132 0.000902355 0)
(-0.937942 0.00075039 0)
(-0.940259 0.000616935 0)
(-0.942137 0.000497317 0)
(-0.943615 0.000387946 0)
(-0.944721 0.000285988 0)
(-0.945477 0.000189143 0)
(-0.945896 9.54828e-05 0)
(-0.945986 3.33299e-06 0)
(-0.945751 -8.88643e-05 0)
(-0.945187 -0.000182562 0)
(-0.944288 -0.000279246 0)
(-0.943042 -0.000380512 0)
(-0.94143 -0.00048816 0)
(-0.939429 -0.000604323 0)
(-0.937006 -0.000731633 0)
(-0.934121 -0.000873457 0)
(-0.93072 -0.00103423 0)
(-0.926734 -0.00121996 0)
(-0.922072 -0.00143905 0)
(-0.916614 -0.00170354 0)
(-0.9102 -0.00203145 0)
(-0.902609 -0.00245082 0)
(-0.893528 -0.00300764 0)
(-0.882504 -0.00378153 0)
(-0.868853 -0.00491796 0)
(-0.851488 -0.00669571 0)
(-0.828607 -0.00966599 0)
(-0.797194 -0.0149161 0)
(-0.752102 -0.0244997 0)
(-0.682586 -0.0421514 0)
(-0.564958 -0.0746213 0)
(-0.389321 -0.128129 0)
(-0.290207 -0.152372 0)
(-0.00516277 0.302914 0)
(-0.0270625 0.307344 0)
(-0.171312 0.217777 0)
(-0.30815 0.146553 0)
(-0.41702 0.0991708 0)
(-0.502192 0.0689023 0)
(-0.568508 0.0496428 0)
(-0.620376 0.037095 0)
(-0.661478 0.0286048 0)
(-0.69454 0.0226243 0)
(-0.7215 0.0182514 0)
(-0.743735 0.0149466 0)
(-0.76224 0.0123756 0)
(-0.777737 0.0103236 0)
(-0.790765 0.00864745 0)
(-0.801723 0.00724853 0)
(-0.810918 0.00605695 0)
(-0.81858 0.0050218 0)
(-0.824889 0.00410518 0)
(-0.82998 0.00327814 0)
(-0.833957 0.00251814 0)
(-0.836897 0.00180713 0)
(-0.838856 0.00113032 0)
(-0.839873 0.000475154 0)
(-0.83997 -0.000169362 0)
(-0.839154 -0.000813327 0)
(-0.837422 -0.00146642 0)
(-0.834755 -0.00213846 0)
(-0.831121 -0.00283988 0)
(-0.826476 -0.00358241 0)
(-0.820757 -0.00437979 0)
(-0.813881 -0.00524874 0)
(-0.805744 -0.00621032 0)
(-0.796209 -0.00729178 0)
(-0.785103 -0.00852925 0)
(-0.772201 -0.00997178 0)
(-0.757211 -0.0116876 0)
(-0.739749 -0.0137738 0)
(-0.719305 -0.0163729 0)
(-0.695191 -0.0197 0)
(-0.666464 -0.0240909 0)
(-0.631823 -0.0300864 0)
(-0.589453 -0.038582 0)
(-0.536834 -0.0510891 0)
(-0.470648 -0.0701343 0)
(-0.387042 -0.0996634 0)
(-0.281831 -0.145095 0)
(-0.151531 -0.212621 0)
(-0.0164516 -0.298201 0)
(-0.000988423 -0.29468 0)
(0.0321116 0.264061 0)
(0.0563779 0.362326 0)
(-0.00359517 0.324927 0)
(-0.0957982 0.260449 0)
(-0.192091 0.200758 0)
(-0.280779 0.153696 0)
(-0.357748 0.118738 0)
(-0.422786 0.0931309 0)
(-0.47725 0.07424 0)
(-0.522823 0.0600766 0)
(-0.561061 0.0492453 0)
(-0.593265 0.040788 0)
(-0.620484 0.0340471 0)
(-0.643544 0.0285662 0)
(-0.663095 0.0240235 0)
(-0.679643 0.0201875 0)
(-0.693587 0.0168889 0)
(-0.705238 0.0140011 0)
(-0.71484 0.0114281 0)
(-0.722584 0.00909527 0)
(-0.728617 0.00694359 0)
(-0.733048 0.00492543 0)
(-0.735961 0.00300129 0)
(-0.73741 0.00113748 0)
(-0.737431 -0.000695711 0)
(-0.736037 -0.00252556 0)
(-0.733223 -0.00437829 0)
(-0.728968 -0.00628032 0)
(-0.723227 -0.00825965 0)
(-0.715941 -0.0103474 0)
(-0.707024 -0.0125796 0)
(-0.696366 -0.0149996 0)
(-0.683826 -0.0176613 0)
(-0.669227 -0.0206329 0)
(-0.652344 -0.0240033 0)
(-0.632893 -0.0278906 0)
(-0.610517 -0.0324537 0)
(-0.584766 -0.037911 0)
(-0.555067 -0.0445676 0)
(-0.520698 -0.0528557 0)
(-0.480758 -0.0633963 0)
(-0.434145 -0.0770864 0)
(-0.379588 -0.0952155 0)
(-0.315785 -0.119588 0)
(-0.241864 -0.152536 0)
(-0.158517 -0.196381 0)
(-0.0700589 -0.251285 0)
(0.0122054 -0.309916 0)
(0.0620035 -0.343246 0)
(0.03303 -0.249918 0)
(0.0271494 0.205254 0)
(0.0637424 0.357826 0)
(0.0551261 0.375643 0)
(0.00785702 0.338486 0)
(-0.0596816 0.285832 0)
(-0.133161 0.234957 0)
(-0.204429 0.191618 0)
(-0.269712 0.156509 0)
(-0.327746 0.128574 0)
(-0.378526 0.106396 0)
(-0.422594 0.0886787 0)
(-0.460675 0.0743724 0)
(-0.493501 0.0626674 0)
(-0.521736 0.0529519 0)
(-0.545954 0.0447651 0)
(-0.566635 0.0377593 0)
(-0.584178 0.0316692 0)
(-0.598908 0.0262906 0)
(-0.611085 0.0214644 0)
(-0.620921 0.0170644 0)
(-0.628581 0.0129891 0)
(-0.634193 0.00915531 0)
(-0.637852 0.00549345 0)
(-0.639626 0.00194357 0)
(-0.639557 -0.0015475 0)
(-0.637665 -0.00502864 0)
(-0.633949 -0.00854671 0)
(-0.628387 -0.0121487 0)
(-0.620936 -0.015884 0)
(-0.61153 -0.0198067 0)
(-0.600083 -0.0239788 0)
(-0.586479 -0.0284734 0)
(-0.570574 -0.0333797 0)
(-0.552192 -0.0388084 0)
(-0.531112 -0.0449004 0)
(-0.507071 -0.0518368 0)
(-0.479749 -0.0598537 0)
(-0.448768 -0.069262 0)
(-0.413688 -0.0804727 0)
(-0.374018 -0.0940301 0)
(-0.329244 -0.110649 0)
(-0.278913 -0.131246 0)
(-0.222803 -0.156933 0)
(-0.161266 -0.188885 0)
(-0.0958493 -0.227899 0)
(-0.0303569 -0.273156 0)
(0.0275626 -0.319296 0)
(0.0649109 -0.350746 0)
(0.0657213 -0.331935 0)
(0.0268675 -0.189927 0)
(0.0184519 0.163481 0)
(0.0530779 0.331619 0)
(0.0684488 0.387062 0)
(0.0527107 0.379807 0)
(0.0130256 0.344164 0)
(-0.0398884 0.299703 0)
(-0.0978712 0.255982 0)
(-0.155723 0.216848 0)
(-0.210507 0.183302 0)
(-0.260803 0.155095 0)
(-0.306101 0.131525 0)
(-0.346394 0.111801 0)
(-0.381923 0.095198 0)
(-0.413033 0.0810962 0)
(-0.440095 0.0689896 0)
(-0.463463 0.0584702 0)
(-0.483457 0.049211 0)
(-0.500357 0.0409502 0)
(-0.514399 0.0334768 0)
(-0.525779 0.0266193 0)
(-0.53466 0.0202367 0)
(-0.541167 0.0142113 0)
(-0.5454 0.00844331 0)
(-0.547429 0.00284586 0)
(-0.547303 -0.00265849 0)
(-0.545045 -0.00814115 0)
(-0.54066 -0.0136704 0)
(-0.534133 -0.0193142 0)
(-0.525428 -0.0251432 0)
(-0.514491 -0.0312337 0)
(-0.501245 -0.0376713 0)
(-0.485595 -0.0445552 0)
(-0.467422 -0.0520033 0)
(-0.446584 -0.0601585 0)
(-0.422914 -0.0691966 0)
(-0.396225 -0.0793362 0)
(-0.36631 -0.09085 0)
(-0.332954 -0.104078 0)
(-0.295957 -0.119442 0)
(-0.255177 -0.137449 0)
(-0.210601 -0.158692 0)
(-0.162483 -0.183795 0)
(-0.111562 -0.213282 0)
(-0.0594047 -0.24725 0)
(-0.00889289 -0.284685 0)
(0.0352028 -0.322095 0)
(0.0657041 -0.351054 0)
(0.073469 -0.354398 0)
(0.0532042 -0.301814 0)
(0.01791 -0.148351 0)
(0.0119503 0.134702 0)
(0.0407844 0.300694 0)
(0.0651672 0.378176 0)
(0.068308 0.395813 0)
(0.0499938 0.379236 0)
(0.0162785 0.346261 0)
(-0.0265743 0.30766 0)
(-0.0735689 0.269223 0)
(-0.121189 0.233664 0)
(-0.167201 0.201971 0)
(-0.210319 0.174241 0)
(-0.249894 0.150165 0)
(-0.28567 0.129281 0)
(-0.317629 0.111102 0)
(-0.345878 0.0951776 0)
(-0.370588 0.0811078 0)
(-0.391951 0.0685522 0)
(-0.410157 0.0572234 0)
(-0.425384 0.0468804 0)
(-0.43779 0.0373208 0)
(-0.447509 0.0283736 0)
(-0.454653 0.0198934 0)
(-0.459312 0.0117544 0)
(-0.461554 0.00384587 0)
(-0.461427 -0.0039315 0)
(-0.458959 -0.0116696 0)
(-0.454163 -0.0194561 0)
(-0.447033 -0.0273774 0)
(-0.437549 -0.0355221 0)
(-0.425676 -0.0439844 0)
(-0.411363 -0.0528675 0)
(-0.394549 -0.062288 0)
(-0.375161 -0.0723805 0)
(-0.353118 -0.0833029 0)
(-0.328335 -0.0952423 0)
(-0.300735 -0.108421 0)
(-0.270258 -0.1231 0)
(-0.236889 -0.139585 0)
(-0.200694 -0.158217 0)
(-0.161876 -0.179353 0)
(-0.120869 -0.203316 0)
(-0.0784731 -0.230285 0)
(-0.0360362 -0.260074 0)
(0.00430249 -0.29174 0)
(0.039378 -0.322876 0)
(0.0649013 -0.348495 0)
(0.0757019 -0.359407 0)
(0.0670382 -0.340357 0)
(0.0401133 -0.269072 0)
(0.0114453 -0.12008 0)
(0.0078642 0.114189 0)
(0.0310228 0.271484 0)
(0.0572141 0.360245 0)
(0.0703789 0.396055 0)
(0.0666372 0.396646 0)
(0.0483386 0.376545 0)
(0.0194541 0.346004 0)
(-0.0160447 0.31155 0)
(-0.0548375 0.276966 0)
(-0.0944498 0.244229 0)
(-0.133182 0.214208 0)
(-0.169942 0.187136 0)
(-0.204079 0.162916 0)
(-0.235243 0.141288 0)
(-0.263281 0.121935 0)
(-0.288162 0.104531 0)
(-0.309929 0.08877 0)
(-0.328661 0.0743758 0)
(-0.344453 0.0611035 0)
(-0.357407 0.0487394 0)
(-0.367615 0.0370968 0)
(-0.375161 0.0260126 0)
(-0.380118 0.0153432 0)
(-0.382543 0.00496026 0)
(-0.382482 -0.00525248 0)
(-0.379965 -0.0154028 0)
(-0.375013 -0.0255931 0)
(-0.367633 -0.0359236 0)
(-0.357824 -0.0464954 0)
(-0.345575 -0.0574134 0)
(-0.330872 -0.0687899 0)
(-0.313697 -0.0807477 0)
(-0.294032 -0.0934235 0)
(-0.271872 -0.106971 0)
(-0.247224 -0.121564 0)
(-0.220131 -0.137395 0)
(-0.190684 -0.154675 0)
(-0.159058 -0.173621 0)
(-0.12555 -0.194435 0)
(-0.090641 -0.217259 0)
(-0.0550745 -0.242093 0)
(-0.0199616 -0.268655 0)
(0.0131014 -0.296137 0)
(0.0419267 -0.322827 0)
(0.0637164 -0.345541 0)
(0.0752704 -0.35885 0)
(0.0735599 -0.354232 0)
(0.057093 -0.319484 0)
(0.0300062 -0.239389 0)
(0.007442 -0.100207 0)
(0.00541693 0.0991097 0)
(0.0240023 0.245795 0)
(0.0489593 0.339082 0)
(0.0667605 0.387099 0)
(0.0722222 0.401595 0)
(0.0653062 0.393675 0)
(0.0480251 0.372221 0)
(0.0231201 0.343628 0)
(-0.00668551 0.312136 0)
(-0.0390729 0.280352 0)
(-0.072241 0.249752 0)
(-0.104876 0.22107 0)
(-0.136068 0.194583 0)
(-0.165217 0.170303 0)
(-0.191949 0.148095 0)
(-0.21605 0.127754 0)
(-0.237412 0.109048 0)
(-0.255999 0.0917462 0)
(-0.271817 0.0756254 0)
(-0.284897 0.0604812 0)
(-0.295284 0.0461277 0)
(-0.303024 0.0323969 0)
(-0.308166 0.0191372 0)
(-0.310754 0.00621095 0)
(-0.310824 -0.00650781 0)
(-0.308408 -0.0191364 0)
(-0.303534 -0.031786 0)
(-0.296223 -0.044564 0)
(-0.286494 -0.0575768 0)
(-0.274365 -0.0709323 0)
(-0.259858 -0.084742 0)
(-0.243003 -0.0991232 0)
(-0.223842 -0.1142 0)
(-0.202441 -0.130106 0)
(-0.178902 -0.146978 0)
(-0.153376 -0.164955 0)
(-0.126087 -0.184168 0)
(-0.0973611 -0.204718 0)
(-0.0676673 -0.226639 0)
(-0.0376637 -0.249844 0)
(-0.0082567 -0.274029 0)
(0.019339 -0.298522 0)
(0.0435529 -0.32207 0)
(0.0624604 -0.342523 0)
(0.073902 -0.356439 0)
(0.0758225 -0.358644 0)
(0.0668864 -0.341909 0)
(0.0475556 -0.297047 0)
(0.0228052 -0.214063 0)
(0.00505544 -0.0858214 0)
(0.00393233 0.0876172 0)
(0.019039 0.223698 0)
(0.0417261 0.317553 0)
(0.061148 0.373217 0)
(0.0720489 0.398274 0)
(0.0730765 0.400888 0)
(0.0648306 0.388322 0)
(0.048942 0.366356 0)
(0.0274178 0.339223 0)
(0.00220895 0.309826 0)
(-0.0249993 0.280037 0)
(-0.0528529 0.250979 0)
(-0.0803185 0.223265 0)
(-0.10664 0.197173 0)
(-0.131282 0.17277 0)
(-0.153883 0.149995 0)
(-0.174206 0.12872 0)
(-0.192106 0.108781 0)
(-0.207502 0.0900022 0)
(-0.220355 0.0722066 0)
(-0.230655 0.0552245 0)
(-0.23841 0.0388964 0)
(-0.24364 0.0230738 0)
(-0.24637 0.00761894 0)
(-0.246627 -0.00759582 0)
(-0.244442 -0.0226899 0)
(-0.239847 -0.0377759 0)
(-0.232876 -0.0529614 0)
(-0.223567 -0.0683507 0)
(-0.211967 -0.0840461 0)
(-0.198132 -0.100149 0)
(-0.182138 -0.116761 0)
(-0.164082 -0.133981 0)
(-0.144097 -0.151907 0)
(-0.122361 -0.170627 0)
(-0.0991161 -0.19021 0)
(-0.0746854 -0.210691 0)
(-0.0495016 -0.232046 0)
(-0.0241354 -0.254144 0)
(0.000670822 -0.276691 0)
(0.0239717 -0.299133 0)
(0.0445981 -0.320523 0)
(0.0611659 -0.339348 0)
(0.0721449 -0.3533 0)
(0.076041 -0.359041 0)
(0.0717497 -0.351999 0)
(0.0590753 -0.326363 0)
(0.039466 -0.275457 0)
(0.0177255 -0.192865 0)
(0.00360697 -0.075052 0)
(0.00299363 0.0785381 0)
(0.0154796 0.204742 0)
(0.035728 0.296966 0)
(0.0551773 0.357028 0)
(0.0690363 0.389745 0)
(0.0753568 0.400973 0)
(0.0738314 0.396443 0)
(0.065223 0.381111 0)
(0.0508648 0.358921 0)
(0.0322673 0.332806 0)
(0.0108791 0.304839 0)
(-0.0120317 0.276406 0)
(-0.0354188 0.248381 0)
(-0.0584559 0.221274 0)
(-0.0805122 0.195343 0)
(-0.101121 0.170681 0)
(-0.119945 0.147274 0)
(-0.136748 0.125043 0)
(-0.151372 0.103875 0)
(-0.163714 0.0836351 0)
(-0.173711 0.0641845 0)
(-0.181333 0.0453839 0)
(-0.186568 0.0270984 0)
(-0.189421 0.00919971 0)
(-0.189908 -0.00843329 0)
(-0.188056 -0.0259143 0)
(-0.183899 -0.0433503 0)
(-0.177483 -0.0608418 0)
(-0.168861 -0.0784834 0)
(-0.158105 -0.0963644 0)
(-0.145303 -0.114568 0)
(-0.130568 -0.133171 0)
(-0.114043 -0.152239 0)
(-0.0959158 -0.171825 0)
(-0.0764229 -0.191958 0)
(-0.0558699 -0.212632 0)
(-0.0346456 -0.233787 0)
(-0.0132411 -0.255275 0)
(0.00773087 -0.276825 0)
(0.0275188 -0.297973 0)
(0.0452241 -0.317989 0)
(0.0598104 -0.335764 0)
(0.0701483 -0.349683 0)
(0.0751163 -0.357479 0)
(0.0737928 -0.356119 0)
(0.0657656 -0.341752 0)
(0.0515177 -0.309856 0)
(0.0328774 -0.255683 0)
(0.0140828 -0.175171 0)
(0.00268931 -0.0667217 0)
(0.00236854 0.0711483 0)
(0.0128579 0.188407 0)
(0.0308248 0.277835 0)
(0.0495055 0.340071 0)
(0.064743 0.378124 0)
(0.0744189 0.396133 0)
(0.0777045 0.398512 0)
(0.0747453 0.389373 0)
(0.066316 0.372219 0)
(0.0534996 0.349843 0)
(0.0374611 0.324359 0)
(0.01931 0.297293 0)
(2.83827e-05 0.269701 0)
(-0.0195573 0.242275 0)
(-0.0387768 0.21544 0)
(-0.0571026 0.189431 0)
(-0.0741297 0.16435 0)
(-0.0895546 0.140211 0)
(-0.103155 0.11697 0)
(-0.114774 0.0945475 0)
(-0.124303 0.0728453 0)
(-0.131673 0.0517546 0)
(-0.136844 0.0311634 0)
(-0.1398 0.0109612 0)
(-0.140546 -0.00895854 0)
(-0.1391 -0.0286967 0)
(-0.135499 -0.0483474 0)
(-0.129794 -0.0679976 0)
(-0.122053 -0.087726 0)
(-0.112365 -0.107602 0)
(-0.100843 -0.127685 0)
(-0.0876295 -0.148019 0)
(-0.0729033 -0.168632 0)
(-0.0568878 -0.189528 0)
(-0.0398608 -0.210674 0)
(-0.0221658 -0.23199 0)
(-0.00422364 -0.253326 0)
(0.0134558 -0.274432 0)
(0.0302644 -0.294918 0)
(0.0454929 -0.314205 0)
(0.0583394 -0.331453 0)
(0.0679383 -0.345485 0)
(0.0734225 -0.354701 0)
(0.0740312 -0.356997 0)
(0.0692846 -0.349728 0)
(0.0592282 -0.329751 0)
(0.0446959 -0.29362 0)
(0.0275599 -0.237997 0)
(0.0114015 -0.160347 0)
(0.00207758 -0.0601028 0)
(0.00192984 0.0649928 0)
(0.0108662 0.174229 0)
(0.0268007 0.260304 0)
(0.0443438 0.323226 0)
(0.0599739 0.364836 0)
(0.0716295 0.388028 0)
(0.0782243 0.39615 0)
(0.0794989 0.392534 0)
(0.0758011 0.380196 0)
(0.0678431 0.361686 0)
(0.0565082 0.339049 0)
(0.0427161 0.313854 0)
(0.0273385 0.287259 0)
(0.011153 0.260087 0)
(-0.00517629 0.232894 0)
(-0.0210999 0.206038 0)
(-0.0361755 0.179729 0)
(-0.0500553 0.154072 0)
(-0.0624716 0.129097 0)
(-0.0732237 0.104785 0)
(-0.0821655 0.0810848 0)
(-0.0891955 0.0579263 0)
(-0.0942483 0.0352277 0)
(-0.0972882 0.0129035 0)
(-0.0983055 -0.00913167 0)
(-0.0973124 -0.0309593 0)
(-0.0943427 -0.0526551 0)
(-0.0894509 -0.0742865 0)
(-0.082714 -0.0959107 0)
(-0.0742332 -0.117573 0)
(-0.0641383 -0.139302 0)
(-0.0525914 -0.16111 0)
(-0.0397934 -0.182981 0)
(-0.0259903 -0.204869 0)
(-0.0114808 -0.226682 0)
(0.00337643 -0.248274 0)
(0.0181551 -0.269415 0)
(0.0323569 -0.289773 0)
(0.0454104 -0.308875 0)
(0.0566783 -0.326066 0)
(0.0654775 -0.340458 0)
(0.0711176 -0.350876 0)
(0.0729675 -0.355808 0)
(0.0705567 -0.353374 0)
(0.0637193 -0.341332 0)
(0.0527762 -0.317167 0)
(0.0387018 -0.278288 0)
(0.0232454 -0.22237 0)
(0.00936987 -0.147859 0)
(0.00164873 -0.0547343 0)
(0.00160674 0.0597757 0)
(0.00930524 0.161842 0)
(0.0234552 0.244354 0)
(0.0397133 0.306988 0)
(0.0551266 0.350831 0)
(0.0677986 0.377886 0)
(0.0765527 0.390662 0)
(0.080886 0.391819 0)
(0.0808404 0.383896 0)
(0.0768292 0.369155 0)
(0.069483 0.349501 0)
(0.0595291 0.326475 0)
(0.0477076 0.301274 0)
(0.0347167 0.274798 0)
(0.0211821 0.247699 0)
(0.00764453 0.220435 0)
(-0.00544297 0.193309 0)
(-0.0177099 0.16651 0)
(-0.0288603 0.140141 0)
(-0.0386634 0.114244 0)
(-0.0469443 0.088819 0)
(-0.0535754 0.063839 0)
(-0.0584693 0.0392577 0)
(-0.0615728 0.0150199 0)
(-0.0628629 -0.00893292 0)
(-0.0623435 -0.0326581 0)
(-0.060044 -0.0562076 0)
(-0.0560188 -0.0796252 0)
(-0.0503482 -0.102943 0)
(-0.04314 -0.126177 0)
(-0.0345325 -0.149326 0)
(-0.0246984 -0.172364 0)
(-0.0138487 -0.195234 0)
(-0.00223797 -0.217842 0)
(0.00983068 -0.240044 0)
(0.0220016 -0.261631 0)
(0.0338634 -0.282313 0)
(0.04495 -0.301696 0)
(0.0547452 -0.319252 0)
(0.0626975 -0.334287 0)
(0.0682448 -0.34591 0)
(0.0708571 -0.352995 0)
(0.0700992 -0.354161 0)
(0.0657181 -0.347767 0)
(0.0577553 -0.331952 0)
(0.0466773 -0.304727 0)
(0.0334734 -0.264163 0)
(0.0197004 -0.208657 0)
(0.00778542 -0.137284 0)
(0.00133406 -0.0503137 0)
(0.00135855 0.055298 0)
(0.00804497 0.15096 0)
(0.0206262 0.229901 0)
(0.0355614 0.291629 0)
(0.050383 0.336739 0)
(0.0633998 0.366599 0)
(0.0734452 0.383073 0)
(0.0798865 0.388261 0)
(0.0825601 0.384267 0)
(0.0816516 0.373057 0)
(0.077579 0.356361 0)
(0.0708925 0.335639 0)
(0.0621968 0.31208 0)
(0.0520954 0.286619 0)
(0.0411555 0.259972 0)
(0.0298865 0.232668 0)
(0.0187314 0.205087 0)
(0.00806463 0.177492 0)
(-0.00180516 0.150052 0)
(-0.0106296 0.122871 0)
(-0.0182144 0.0959985 0)
(-0.0244129 0.0694528 0)
(-0.0291203 0.0432265 0)
(-0.0322685 0.0172983 0)
(-0.0338224 -0.00835982 0)
(-0.0337768 -0.0337772 0)
(-0.032155 -0.0589789 0)
(-0.029008 -0.0839816 0)
(-0.0244148 -0.108789 0)
(-0.018484 -0.133388 0)
(-0.0113554 -0.157744 0)
(-0.00320291 -0.181795 0)
(0.0057622 -0.205443 0)
(0.0152885 -0.22855 0)
(0.0250817 -0.250925 0)
(0.0348029 -0.272311 0)
(0.0440697 -0.29237 0)
(0.05246 -0.310663 0)
(0.0595219 -0.326633 0)
(0.0647909 -0.339578 0)
(0.0678175 -0.348631 0)
(0.068208 -0.352745 0)
(0.06568 -0.350683 0)
(0.0601335 -0.34104 0)
(0.0517365 -0.322289 0)
(0.0410135 -0.292874 0)
(0.0288993 -0.25137 0)
(0.0167401 -0.196682 0)
(0.00651517 -0.128298 0)
(0.00109373 -0.046636 0)
(0.00116083 0.0514216 0)
(0.00699897 0.141365 0)
(0.0181889 0.216848 0)
(0.0318142 0.277296 0)
(0.0458135 0.32298 0)
(0.0587062 0.354817 0)
(0.0693908 0.374181 0)
(0.0771829 0.382712 0)
(0.08179 0.38214 0)
(0.0832329 0.374145 0)
(0.0817598 0.36027 0)
(0.0777672 0.341866 0)
(0.0717318 0.320078 0)
(0.0641594 0.295845 0)
(0.0555471 0.269913 0)
(0.0463592 0.242863 0)
(0.0370129 0.215134 0)
(0.027872 0.187049 0)
(0.0192447 0.158837 0)
(0.0113857 0.130655 0)
(0.0044997 0.102604 0)
(-0.00125447 0.0747462 0)
(-0.00575941 0.0471144 0)
(-0.00893518 0.0197229 0)
(-0.010736 -0.00742381 0)
(-0.0111476 -0.0343247 0)
(-0.0101858 -0.0609759 0)
(-0.00789537 -0.087365 0)
(-0.0043504 -0.113467 0)
(0.000345241 -0.139237 0)
(0.00605646 -0.164608 0)
(0.0126153 -0.189483 0)
(0.0198189 -0.213728 0)
(0.0274284 -0.237165 0)
(0.0351677 -0.259562 0)
(0.0427244 -0.280623 0)
(0.0497529 -0.299976 0)
(0.0558815 -0.317155 0)
(0.0607235 -0.331591 0)
(0.0638963 -0.342592 0)
(0.0650482 -0.349337 0)
(0.0638951 -0.350868 0)
(0.0602676 -0.346095 0)
(0.0541672 -0.333829 0)
(0.0458283 -0.312825 0)
(0.0357783 -0.281878 0)
(0.0248623 -0.239938 0)
(0.0142225 -0.186277 0)
(0.00546976 -0.120653 0)
(0.000903605 -0.0435578 0)
(0.000998225 0.0480484 0)
(0.00610837 0.132891 0)
(0.0160489 0.2051 0)
(0.0283984 0.264062 0)
(0.041433 0.309835 0)
(0.0538719 0.343013 0)
(0.0647066 0.364599 0)
(0.0732513 0.375866 0)
(0.0791413 0.378224 0)
(0.0822841 0.373094 0)
(0.0827986 0.361833 0)
(0.0809533 0.345674 0)
(0.0771116 0.325694 0)
(0.0716848 0.302809 0)
(0.0650969 0.277776 0)
(0.057759 0.251205 0)
(0.0500526 0.223577 0)
(0.0423195 0.195262 0)
(0.0348573 0.166541 0)
(0.0279176 0.137617 0)
(0.0217075 0.10864 0)
(0.0163917 0.079713 0)
(0.0120953 0.0509081 0)
(0.00890702 0.0222756 0)
(0.00688151 -0.00614682 0)
(0.00604169 -0.034327 0)
(0.00638023 -0.0622309 0)
(0.00786044 -0.0898169 0)
(0.0104166 -0.11703 0)
(0.0139534 -0.143796 0)
(0.0183459 -0.170015 0)
(0.023438 -0.195558 0)
(0.0290418 -0.220258 0)
(0.0349376 -0.243902 0)
(0.0408744 -0.266225 0)
(0.046572 -0.286901 0)
(0.0517259 -0.305532 0)
(0.0560155 -0.32164 0)
(0.0591164 -0.334655 0)
(0.0607186 -0.34391 0)
(0.0605514 -0.348637 0)
(0.0584151 -0.34797 0)
(0.0542196 -0.34096 0)
(0.048027 -0.326602 0)
(0.0400973 -0.303893 0)
(0.0309268 -0.271897 0)
(0.0212559 -0.229855 0)
(0.0120404 -0.177297 0)
(0.00458758 -0.114162 0)
(0.000748377 -0.0409771 0)
(0.000860709 0.045107 0)
(0.0053322 0.125414 0)
(0.0141354 0.194574 0)
(0.025249 0.251963 0)
(0.0372307 0.297496 0)
(0.0489818 0.331535 0)
(0.0595986 0.354801 0)
(0.0684251 0.36828 0)
(0.0750653 0.373111 0)
(0.0793539 0.370493 0)
(0.0813149 0.361605 0)
(0.0811154 0.347557 0)
(0.0790215 0.329351 0)
(0.0753585 0.307863 0)
(0.0704791 0.283842 0)
(0.0647384 0.25791 0)
(0.0584761 0.230576 0)
(0.0520051 0.202246 0)
(0.0456041 0.17324 0)
(0.0395143 0.143806 0)
(0.0339386 0.114131 0)
(0.0290417 0.0843592 0)
(0.0249523 0.0545997 0)
(0.0217645 0.0249372 0)
(0.0195399 -0.00455813 0)
(0.0183095 -0.0338233 0)
(0.0180747 -0.0627946 0)
(0.0188084 -0.0914016 0)
(0.0204554 -0.11956 0)
(0.0229327 -0.147167 0)
(0.0261288 -0.174094 0)
(0.0299042 -0.20018 0)
(0.0340907 -0.225229 0)
(0.0384927 -0.249 0)
(0.042888 -0.2712 0)
(0.0470318 -0.291479 0)
(0.0506616 -0.309424 0)
(0.0535062 -0.324551 0)
(0.0552974 -0.336299 0)
(0.0557875 -0.344033 0)
(0.0547702 -0.347039 0)
(0.052108 -0.34454 0)
(0.0477623 -0.33571 0)
(0.0418264 -0.319707 0)
(0.0345574 -0.295718 0)
(0.0264009 -0.263026 0)
(0.0179895 -0.221088 0)
(0.0101122 -0.169618 0)
(0.00382515 -0.108682 0)
(0.000617915 -0.0388199 0)
(0.000741461 0.0425449 0)
(0.00464127 0.118836 0)
(0.0123948 0.1852 0)
(0.0223113 0.241012 0)
(0.0331852 0.286094 0)
(0.0440808 0.320638 0)
(0.0542016 0.345155 0)
(0.0629404 0.360401 0)
(0.069898 0.367297 0)
(0.0748675 0.366847 0)
(0.0778066 0.360075 0)
(0.0788046 0.347971 0)
(0.0780473 0.331454 0)
(0.0757847 0.311354 0)
(0.0723032 0.288399 0)
(0.0679024 0.26321 0)
(0.0628778 0.236312 0)
(0.0575087 0.208136 0)
(0.0520499 0.179033 0)
(0.0467265 0.149284 0)
(0.0417314 0.119113 0)
(0.0372252 0.0886999 0)
(0.0333357 0.0581858 0)
(0.0301596 0.0276883 0)
(0.0277636 -0.00269169 0)
(0.0261855 -0.0328617 0)
(0.0254355 -0.0627299 0)
(0.0254969 -0.092198 0)
(0.0263267 -0.121155 0)
(0.0278562 -0.14947 0)
(0.0299906 -0.176988 0)
(0.0326097 -0.203522 0)
(0.0355686 -0.228849 0)
(0.038698 -0.252702 0)
(0.0418074 -0.274767 0)
(0.0446879 -0.294678 0)
(0.0471183 -0.31201 0)
(0.048873 -0.32628 0)
(0.0497336 -0.33694 0)
(0.0495033 -0.343387 0)
(0.0480258 -0.344961 0)
(0.0452068 -0.340965 0)
(0.0410383 -0.33068 0)
(0.0356228 -0.313397 0)
(0.0291958 -0.28846 0)
(0.0221419 -0.255321 0)
(0.0149882 -0.213597 0)
(0.00837607 -0.163142 0)
(0.00315115 -0.104105 0)
(0.000505278 -0.0370318 0)
(0.00063571 0.0403229 0)
(0.00401437 0.113084 0)
(0.0107867 0.17692 0)
(0.0195407 0.231213 0)
(0.0292721 0.27572 0)
(0.0391908 0.310512 0)
(0.0486049 0.335941 0)
(0.0569665 0.352584 0)
(0.0638923 0.361186 0)
(0.0691572 0.362586 0)
(0.0726758 0.35767 0)
(0.0744798 0.347319 0)
(0.0746907 0.332373 0)
(0.0734947 0.313609 0)
(0.0711182 0.291726 0)
(0.0678084 0.267337 0)
(0.0638168 0.240971 0)
(0.059387 0.213075 0)
(0.054746 0.184024 0)
(0.050099 0.154125 0)
(0.0456251 0.123633 0)
(0.0414763 0.0927555 0)
(0.0377766 0.0616656 0)
(0.0346225 0.0305095 0)
(0.0320836 -0.000584014 0)
(0.0302034 -0.0314953 0)
(0.0290005 -0.0621063 0)
(0.0284688 -0.0922933 0)
(0.0285785 -0.12192 0)
(0.0292765 -0.150832 0)
(0.0304866 -0.178849 0)
(0.03211 -0.20576 0)
(0.0340266 -0.23132 0)
(0.0360955 -0.255241 0)
(0.0381582 -0.277192 0)
(0.0400416 -0.296793 0)
(0.0415634 -0.313613 0)
(0.0425395 -0.32717 0)
(0.0427941 -0.336933 0)
(0.0421719 -0.342328 0)
(0.0405536 -0.342745 0)
(0.0378733 -0.337554 0)
(0.0341371 -0.326126 0)
(0.0294413 -0.307863 0)
(0.0239881 -0.282231 0)
(0.0180958 -0.248812 0)
(0.0121912 -0.207347 0)
(0.00678455 -0.15779 0)
(0.00254255 -0.10035 0)
(0.00040557 -0.0355729 0)
(0.000540023 0.0384114 0)
(0.00343583 0.108103 0)
(0.00928002 0.169688 0)
(0.0169009 0.222562 0)
(0.0254681 0.266438 0)
(0.0343211 0.3013 0)
(0.0428683 0.327378 0)
(0.0506264 0.345114 0)
(0.0572411 0.355107 0)
(0.0624856 0.358065 0)
(0.0662501 0.354754 0)
(0.0685251 0.345957 0)
(0.0693827 0.332441 0)
(0.0689556 0.314928 0)
(0.0674181 0.294086 0)
(0.064969 0.270513 0)
(0.0618172 0.244735 0)
(0.0581701 0.217208 0)
(0.0542256 0.188321 0)
(0.0501658 0.158405 0)
(0.0461531 0.127737 0)
(0.0423277 0.0965487 0)
(0.0388071 0.0650398 0)
(0.035685 0.0333814 0)
(0.033032 0.00172731 0)
(0.0308962 -0.0297789 0)
(0.0293035 -0.0609957 0)
(0.0282585 -0.0917766 0)
(0.0277448 -0.121963 0)
(0.0277256 -0.151379 0)
(0.0281442 -0.179823 0)
(0.0289244 -0.207063 0)
(0.0299718 -0.232836 0)
(0.0311746 -0.256835 0)
(0.032406 -0.278715 0)
(0.0335275 -0.298086 0)
(0.034393 -0.314511 0)
(0.0348558 -0.327513 0)
(0.0347762 -0.336575 0)
(0.0340318 -0.341149 0)
(0.0325302 -0.340665 0)
(0.0302219 -0.334549 0)
(0.0271152 -0.322247 0)
(0.0232895 -0.303246 0)
(0.0189061 -0.27711 0)
(0.0142154 -0.243518 0)
(0.00954932 -0.202306 0)
(0.00530107 -0.153501 0)
(0.00198216 -0.0973557 0)
(0.000315246 -0.0344138 0)
(0.000451866 0.0367882 0)
(0.00289379 0.103847 0)
(0.00785079 0.163468 0)
(0.0143627 0.215056 0)
(0.0217517 0.258295 0)
(0.0294739 0.293107 0)
(0.0370327 0.319635 0)
(0.0440117 0.338212 0)
(0.0500938 0.349327 0)
(0.0550633 0.353578 0)
(0.0587992 0.351632 0)
(0.0612653 0.344188 0)
(0.0624959 0.331944 0)
(0.0625805 0.315575 0)
(0.0616484 0.295714 0)
(0.0598549 0.272939 0)
(0.0573686 0.247771 0)
(0.0543616 0.220668 0)
(0.0510017 0.192028 0)
(0.0474464 0.162198 0)
(0.043839 0.131471 0)
(0.040306 0.100102 0)
(0.0369554 0.0683084 0)
(0.0338762 0.0362846 0)
(0.0311383 0.00420461 0)
(0.0287927 -0.0277671 0)
(0.026872 -0.059469 0)
(0.0253906 -0.0907351 0)
(0.0243454 -0.121388 0)
(0.0237162 -0.151232 0)
(0.023466 -0.180048 0)
(0.0235417 -0.207589 0)
(0.0238748 -0.233571 0)
(0.0243823 -0.257677 0)
(0.0249688 -0.279547 0)
(0.0255286 -0.298782 0)
(0.0259496 -0.314943 0)
(0.026118 -0.327555 0)
(0.025925 -0.336111 0)
(0.0252744 -0.340084 0)
(0.0240921 -0.338936 0)
(0.0223367 -0.332139 0)
(0.0200098 -0.319193 0)
(0.0171664 -0.299652 0)
(0.0139226 -0.273153 0)
(0.0104608 -0.239451 0)
(0.00702319 -0.198449 0)
(0.00389722 -0.150229 0)
(0.00145692 -0.0950765 0)
(0.00023168 -0.0335329 0)
(0.000369322 0.0354366 0)
(0.00237914 0.100286 0)
(0.00648008 0.158231 0)
(0.0119022 0.208688 0)
(0.018104 0.251324 0)
(0.0246478 0.286015 0)
(0.0311268 0.312839 0)
(0.0371919 0.332053 0)
(0.0425689 0.344056 0)
(0.0470615 0.34936 0)
(0.0505485 0.348553 0)
(0.0529775 0.342261 0)
(0.0543553 0.331126 0)
(0.0547367 0.315776 0)
(0.0542128 0.296813 0)
(0.0528999 0.274793 0)
(0.0509293 0.250229 0)
(0.0484391 0.223575 0)
(0.0455668 0.195237 0)
(0.0424447 0.165568 0)
(0.0391953 0.134877 0)
(0.0359293 0.103432 0)
(0.0327435 0.0714696 0)
(0.0297203 0.0391984 0)
(0.0269271 0.00681056 0)
(0.0244164 -0.0255129 0)
(0.0222262 -0.0575939 0)
(0.0203799 -0.0892505 0)
(0.0188874 -0.12029 0)
(0.0177445 -0.1505 0)
(0.016934 -0.179649 0)
(0.0164257 -0.207473 0)
(0.0161767 -0.233678 0)
(0.0161326 -0.257931 0)
(0.0162282 -0.279863 0)
(0.0163895 -0.299068 0)
(0.0165357 -0.315102 0)
(0.0165829 -0.32749 0)
(0.016449 -0.335733 0)
(0.0160584 -0.339317 0)
(0.0153497 -0.337728 0)
(0.0142828 -0.330467 0)
(0.0128468 -0.317076 0)
(0.0110674 -0.297157 0)
(0.00901313 -0.270401 0)
(0.00679856 -0.236616 0)
(0.00458104 -0.195755 0)
(0.00255061 -0.14794 0)
(0.000956741 -0.0934791 0)
(0.000152879 -0.0329146 0)
(0.000290893 0.0343441 0)
(0.00188462 0.0973938 0)
(0.00515262 0.153955 0)
(0.00949962 0.203454 0)
(0.0145085 0.245547 0)
(0.0198393 0.280082 0)
(0.0251707 0.30709 0)
(0.0302209 0.32677 0)
(0.0347617 0.339457 0)
(0.0386224 0.345599 0)
(0.0416891 0.345716 0)
(0.0439017 0.340381 0)
(0.0452477 0.330185 0)
(0.0457541 0.315718 0)
(0.0454796 0.297551 0)
(0.0445058 0.276223 0)
(0.0429297 0.252232 0)
(0.0408564 0.22603 0)
(0.0383941 0.198023 0)
(0.0356489 0.16857 0)
(0.0327218 0.137987 0)
(0.0297061 0.106553 0)
(0.0266859 0.0745174 0)
(0.0237352 0.0421008 0)
(0.0209171 0.00950827 0)
(0.0182844 -0.0230665 0)
(0.0158791 -0.055433 0)
(0.0137328 -0.0873969 0)
(0.0118671 -0.118753 0)
(0.0102936 -0.149279 0)
(0.00901423 -0.17873 0)
(0.00802109 -0.206832 0)
(0.00729689 -0.233279 0)
(0.00681494 -0.25773 0)
(0.00653961 -0.279805 0)
(0.006427 -0.299091 0)
(0.00642613 -0.315138 0)
(0.00648076 -0.32747 0)
(0.00653197 -0.335588 0)
(0.00652162 -0.338985 0)
(0.00639664 -0.337161 0)
(0.00611409 -0.329636 0)
(0.00564659 -0.315977 0)
(0.00498768 -0.295817 0)
(0.00415654 -0.268882 0)
(0.00320109 -0.235016 0)
(0.00219714 -0.194208 0)
(0.00124338 -0.146608 0)
(0.000473647 -0.0925403 0)
(7.72789e-05 -0.0325481 0)
(0.000215367 0.0335016 0)
(0.00140429 0.095153 0)
(0.00385565 0.150624 0)
(0.007138 0.19935 0)
(0.01095 0.240982 0)
(0.0150435 0.275351 0)
(0.0191792 0.302458 0)
(0.0231417 0.322462 0)
(0.026751 0.335654 0)
(0.0298661 0.342433 0)
(0.0323861 0.343274 0)
(0.0342494 0.338703 0)
(0.0354298 0.329274 0)
(0.0359325 0.315545 0)
(0.0357884 0.298061 0)
(0.0350479 0.277343 0)
(0.033776 0.253878 0)
(0.0320468 0.228111 0)
(0.0299391 0.200444 0)
(0.027533 0.17124 0)
(0.024907 0.14082 0)
(0.0221359 0.109468 0)
(0.0192897 0.0774404 0)
(0.0164324 0.044967 0)
(0.0136216 0.0122611 0)
(0.0109085 -0.0204751 0)
(0.00833791 -0.0530427 0)
(0.00594849 -0.085239 0)
(0.00377262 -0.116851 0)
(0.00183668 -0.147648 0)
(0.000160953 -0.177377 0)
(-0.00124051 -0.205757 0)
(-0.00236022 -0.232473 0)
(-0.00319761 -0.257175 0)
(-0.00375943 -0.279476 0)
(-0.00406018 -0.298956 0)
(-0.00412218 -0.315157 0)
(-0.00397551 -0.327597 0)
(-0.00365734 -0.335775 0)
(-0.0032107 -0.339182 0)
(-0.00268255 -0.33732 0)
(-0.00212105 -0.329717 0)
(-0.00157228 -0.315949 0)
(-0.00107654 -0.295666 0)
(-0.000664587 -0.268613 0)
(-0.000354507 -0.234654 0)
(-0.000149757 -0.1938 0)
(-3.91139e-05 -0.146218 0)
(1.16499e-06 -0.0922445 0)
(3.62324e-06 -0.0324262 0)
(0.000141715 0.0329031 0)
(0.000932993 0.0935516 0)
(0.00257799 0.148227 0)
(0.00480214 0.196373 0)
(0.00741432 0.237641 0)
(0.0102544 0.271852 0)
(0.0131623 0.298992 0)
(0.0159889 0.319198 0)
(0.0186032 0.332733 0)
(0.0208969 0.339963 0)
(0.0227855 0.341333 0)
(0.0242101 0.337338 0)
(0.0251354 0.328502 0)
(0.0255486 0.315359 0)
(0.0254561 0.298435 0)
(0.0248801 0.278235 0)
(0.0238556 0.255233 0)
(0.0224264 0.229867 0)
(0.0206428 0.202537 0)
(0.0185586 0.173602 0)
(0.0162292 0.143383 0)
(0.01371 0.11217 0)