/*--------------------------------*- C++ -*----------------------------------*\
  =========                 |
  \\      /  F ield         | OpenFOAM: The Open Source CFD Toolbox
   \\    /   O peration     | Website:  https://openfoam.org
    \\  /    A nd           | Version:  7
     \\/     M anipulation  |
\*---------------------------------------------------------------------------*/
FoamFile
{
    version     2.0;
    format      ascii;
    class       volVectorField;
    location    "0.0484";
    object      U;
}
// * * * * * * * * * * * * * * * * * * * * * * * * * * * * * * * * * * * * * //

dimensions      [0 1 -1 0 0 0 0];

internalField   nonuniform List<vector> 
2500
(
(2.86157e-05 -2.84049e-05 0)
(8.58041e-05 -3.43129e-05 0)
(0.000116134 -1.70253e-05 0)
(8.31087e-05 8.21954e-06 0)
(-2.42067e-05 3.3871e-05 0)
(-0.000204126 5.73617e-05 0)
(-0.000449678 7.7636e-05 0)
(-0.000752006 9.44082e-05 0)
(-0.00110131 0.000107716 0)
(-0.00148757 0.000117714 0)
(-0.00190092 0.000124602 0)
(-0.00233187 0.000128593 0)
(-0.0027714 0.000129904 0)
(-0.00321106 0.000128749 0)
(-0.00364297 0.000125337 0)
(-0.00405989 0.000119873 0)
(-0.00445517 0.000112555 0)
(-0.00482281 0.000103573 0)
(-0.00515741 9.31135e-05 0)
(-0.0054542 8.13594e-05 0)
(-0.00570904 6.84896e-05 0)
(-0.00591838 5.46818e-05 0)
(-0.00607931 4.01141e-05 0)
(-0.00618954 2.49668e-05 0)
(-0.00624743 9.42348e-06 0)
(-0.00625197 -6.32664e-06 0)
(-0.00620285 -2.2088e-05 0)
(-0.00610044 -3.76576e-05 0)
(-0.00594581 -5.28242e-05 0)
(-0.00574079 -6.73686e-05 0)
(-0.00548797 -8.10637e-05 0)
(-0.0051907 -9.36758e-05 0)
(-0.00485313 -0.000104966 0)
(-0.00448021 -0.000114691 0)
(-0.00407766 -0.000122609 0)
(-0.00365201 -0.000128479 0)
(-0.0032105 -0.000132065 0)
(-0.00276112 -0.00013314 0)
(-0.00231248 -0.00013149 0)
(-0.00187378 -0.000126915 0)
(-0.00145468 -0.000119235 0)
(-0.00106518 -0.000108297 0)
(-0.000715443 -9.39833e-05 0)
(-0.000415531 -7.62439e-05 0)
(-0.000174953 -5.51718e-05 0)
(-1.96121e-06 -3.12154e-05 0)
(9.75787e-05 -5.58673e-06 0)
(0.000122937 1.89084e-05 0)
(8.68737e-05 3.532e-05 0)
(2.81603e-05 2.81017e-05 0)
(3.47647e-05 -8.56497e-05 0)
(7.62735e-05 -7.51625e-05 0)
(2.4494e-05 2.17735e-05 0)
(-0.000176302 0.00015255 0)
(-0.000548069 0.000290044 0)
(-0.00109051 0.000420671 0)
(-0.0017919 0.000537347 0)
(-0.00263386 0.000636732 0)
(-0.00359425 0.000717482 0)
(-0.00464917 0.000779334 0)
(-0.00577416 0.000822635 0)
(-0.00694502 0.000848091 0)
(-0.00813831 0.00085663 0)
(-0.00933171 0.000849309 0)
(-0.0105042 0.000827262 0)
(-0.0116362 0.000791666 0)
(-0.0127097 0.000743719 0)
(-0.0137083 0.000684627 0)
(-0.0146172 0.000615597 0)
(-0.0154235 0.000537836 0)
(-0.0161156 0.000452551 0)
(-0.0166838 0.000360958 0)
(-0.0171203 0.000264279 0)
(-0.0174187 0.000163759 0)
(-0.0175746 6.06671e-05 0)
(-0.0175853 -4.36971e-05 0)
(-0.0174502 -0.000147995 0)
(-0.0171703 -0.000250847 0)
(-0.0167487 -0.000350832 0)
(-0.0161906 -0.000446488 0)
(-0.0155033 -0.000536317 0)
(-0.0146959 -0.000618794 0)
(-0.0137798 -0.000692381 0)
(-0.0127687 -0.000755539 0)
(-0.011678 -0.00080675 0)
(-0.0105253 -0.000844543 0)
(-0.00933022 -0.00086752 0)
(-0.00811385 -0.000874387 0)
(-0.00689902 -0.000863994 0)
(-0.00570977 -0.000835379 0)
(-0.00457104 -0.000787831 0)
(-0.00350817 -0.000720975 0)
(-0.00254629 -0.00063491 0)
(-0.00170935 -0.000530447 0)
(-0.00101886 -0.000409553 0)
(-0.000491807 -0.000276247 0)
(-0.000137756 -0.000138221 0)
(4.58291e-05 -9.66874e-06 0)
(8.37649e-05 8.27736e-05 0)
(3.56391e-05 8.68671e-05 0)
(1.83946e-05 -0.000117698 0)
(-1.7448e-05 -2.44953e-05 0)
(-0.000227959 0.0002336 0)
(-0.000659321 0.000562567 0)
(-0.00133276 0.00091006 0)
(-0.00224814 0.00124457 0)
(-0.00339039 0.00154761 0)
(-0.00473481 0.00180897 0)
(-0.00625082 0.00202347 0)
(-0.00790453 0.00218903 0)
(-0.00966056 0.00230551 0)
(-0.0114833 0.00237403 0)
(-0.0133379 0.00239651 0)
(-0.0151907 0.00237544 0)
(-0.0170097 0.00231364 0)
(-0.0187653 0.00221415 0)
(-0.0204296 0.00208015 0)
(-0.0219775 0.00191492 0)
(-0.0233862 0.00172178 0)
(-0.0246354 0.00150409 0)
(-0.0257074 0.00126525 0)
(-0.0265873 0.00100867 0)
(-0.0272627 0.000737838 0)
(-0.0277239 0.000456281 0)
(-0.0279642 0.000167604 0)
(-0.0279795 -0.000124503 0)
(-0.0277687 -0.000416251 0)
(-0.0273338 -0.000703748 0)
(-0.0266797 -0.000982999 0)
(-0.0258144 -0.00124991 0)
(-0.0247492 -0.00150032 0)
(-0.0234986 -0.00173 0)
(-0.0220801 -0.00193472 0)
(-0.0205146 -0.00211027 0)
(-0.0188261 -0.00225255 0)
(-0.0170414 -0.00235762 0)
(-0.0151903 -0.00242178 0)
(-0.013305 -0.00244172 0)
(-0.0114199 -0.00241458 0)
(-0.00957081 -0.00233815 0)
(-0.00779489 -0.00221104 0)
(-0.00612932 -0.00203297 0)
(-0.00461041 -0.00180522 0)
(-0.00327217 -0.00153119 0)
(-0.00214436 -0.00121757 0)
(-0.00124984 -0.000876084 0)
(-0.00060088 -0.000526576 0)
(-0.000194134 -0.000201617 0)
(-4.5608e-06 4.61211e-05 0)
(2.03088e-05 0.000124471 0)
(-5.41157e-06 -8.87448e-05 0)
(-0.000144643 0.000172333 0)
(-0.000552929 0.000663723 0)
(-0.00125137 0.00125896 0)
(-0.00225161 0.00188151 0)
(-0.00354992 0.00248164 0)
(-0.00512678 0.00302792 0)
(-0.00695182 0.00350152 0)
(-0.00898771 0.00389189 0)
(-0.0111928 0.00419398 0)
(-0.0135231 0.00440646 0)
(-0.0159341 0.00453051 0)
(-0.0183816 0.00456903 0)
(-0.0208229 0.00452611 0)
(-0.023217 0.00440665 0)
(-0.0255257 0.00421608 0)
(-0.027713 0.00396021 0)
(-0.0297464 0.0036451 0)
(-0.0315961 0.00327697 0)
(-0.0332359 0.00286214 0)
(-0.0346426 0.00240707 0)
(-0.0357968 0.00191828 0)
(-0.0366824 0.00140242 0)
(-0.0372867 0.000866231 0)
(-0.037601 0.000316623 0)
(-0.0376202 -0.000239345 0)
(-0.0373428 -0.000794438 0)
(-0.0367715 -0.00134124 0)
(-0.0359128 -0.00187214 0)
(-0.0347772 -0.0023794 0)
(-0.0333796 -0.00285513 0)
(-0.0317388 -0.00329139 0)
(-0.0298776 -0.00368023 0)
(-0.0278232 -0.00401382 0)
(-0.0256066 -0.00428454 0)
(-0.0232625 -0.00448515 0)
(-0.0208291 -0.00460897 0)
(-0.0183477 -0.00465003 0)
(-0.0158622 -0.00460341 0)
(-0.0134182 -0.00446547 0)
(-0.0110625 -0.00423427 0)
(-0.00884164 -0.00391014 0)
(-0.0068008 -0.00349636 0)
(-0.00498189 -0.0030003 0)
(-0.0034214 -0.00243507 0)
(-0.00214762 -0.00182212 0)
(-0.00117692 -0.00119522 0)
(-0.000509001 -0.0006059 0)
(-0.000127096 -0.000131379 0)
(-2.34273e-06 0.000103864 0)
(-2.99464e-05 1.25839e-05 0)
(-0.000281408 0.000539904 0)
(-0.000905672 0.00133878 0)
(-0.00189019 0.00226139 0)
(-0.0032317 0.00321193 0)
(-0.00491947 0.00412461 0)
(-0.00692768 0.00495557 0)
(-0.00921975 0.00567701 0)
(-0.011752 0.00627235 0)
(-0.014476 0.00673295 0)
(-0.0173408 0.00705575 0)
(-0.0202942 0.00724166 0)
(-0.0232846 0.00729446 0)
(-0.0262616 0.00721989 0)
(-0.0291769 0.00702517 0)
(-0.031985 0.00671847 0)
(-0.0346433 0.00630869 0)
(-0.0371127 0.00580521 0)
(-0.039358 0.00521774 0)
(-0.0413475 0.00455627 0)
(-0.0430538 0.00383097 0)
(-0.0444532 0.00305221 0)
(-0.0455267 0.00223054 0)
(-0.0462592 0.00137672 0)
(-0.04664 0.00050175 0)
(-0.0466631 -0.000383139 0)
(-0.0463269 -0.00126644 0)
(-0.0456346 -0.00213636 0)
(-0.044594 -0.00298086 0)
(-0.043218 -0.00378768 0)
(-0.041524 -0.00454439 0)
(-0.0395347 -0.00523848 0)
(-0.0372776 -0.0058575 0)
(-0.034785 -0.00638921 0)
(-0.0320936 -0.0068218 0)
(-0.0292449 -0.00714407 0)
(-0.0262842 -0.00734579 0)
(-0.0232603 -0.007418 0)
(-0.0202249 -0.00735342 0)
(-0.0172318 -0.00714694 0)
(-0.0143358 -0.00679625 0)
(-0.0115913 -0.00630263 0)
(-0.00905092 -0.00567202 0)
(-0.00676356 -0.00491654 0)
(-0.00477213 -0.00405652 0)
(-0.00311106 -0.00312364 0)
(-0.00180276 -0.00216528 0)
(-0.000853442 -0.00125002 0)
(-0.000260127 -0.000475077 0)
(-2.60427e-05 1.28147e-05 0)
(-5.31104e-05 0.000186645 0)
(-0.000417116 0.0010847 0)
(-0.00126255 0.00226995 0)
(-0.00254045 0.00358198 0)
(-0.00422965 0.00491095 0)
(-0.00630986 0.00617803 0)
(-0.00874708 0.00732851 0)
(-0.0114975 0.00832617 0)
(-0.0145109 0.00914849 0)
(-0.0177322 0.00978307 0)
(-0.0211041 0.0102249 0)
(-0.024568 0.0104746 0)
(-0.0280656 0.0105366 0)
(-0.0315402 0.0104186 0)
(-0.0349371 0.0101301 0)
(-0.0382047 0.00968247 0)
(-0.0412949 0.00908801 0)
(-0.0441633 0.00835987 0)
(-0.0467697 0.00751179 0)
(-0.049078 0.00655794 0)
(-0.051057 0.00551282 0)
(-0.0526798 0.00439126 0)
(-0.0539245 0.00320836 0)
(-0.0547741 0.00197957 0)
(-0.0552163 0.000720624 0)
(-0.0552442 -0.000552351 0)
(-0.0548561 -0.00182287 0)
(-0.0540556 -0.00307407 0)
(-0.0528515 -0.00428875 0)
(-0.0512585 -0.0054494 0)
(-0.0492965 -0.00653833 0)
(-0.0469913 -0.00753776 0)
(-0.044374 -0.00843005 0)
(-0.0414814 -0.0091979 0)
(-0.0383552 -0.00982468 0)
(-0.0350423 -0.0102947 0)
(-0.031594 -0.0105938 0)
(-0.0280656 -0.0107095 0)
(-0.0245156 -0.0106321 0)
(-0.0210046 -0.0103549 0)
(-0.0175943 -0.00987513 0)
(-0.0143462 -0.00919535 0)
(-0.0113199 -0.00832439 0)
(-0.00857098 -0.00727936 0)
(-0.0061492 -0.00608791 0)
(-0.00409628 -0.00479156 0)
(-0.00244257 -0.00344998 0)
(-0.00120339 -0.00214609 0)
(-0.000392681 -0.000992285 0)
(-4.85234e-05 -0.000149089 0)
(-7.43634e-05 0.000430285 0)
(-0.000547531 0.00180547 0)
(-0.0016124 0.00345893 0)
(-0.00318401 0.00522397 0)
(-0.00522208 0.0069813 0)
(-0.00769503 0.00864224 0)
(-0.0105592 0.0101432 0)
(-0.0137625 0.0114407 0)
(-0.0172473 0.012507 0)
(-0.0209522 0.0133262 0)
(-0.0248134 0.0138914 0)
(-0.0287661 0.014203 0)
(-0.0327464 0.0142664 0)
(-0.0366918 0.0140912 0)
(-0.0405422 0.0136895 0)
(-0.0442409 0.0130761 0)
(-0.0477347 0.0122671 0)
(-0.0509748 0.0112797 0)
(-0.0539169 0.0101322 0)
(-0.0565213 0.00884341 0)
(-0.0587534 0.00743263 0)
(-0.0605836 0.00591966 0)
(-0.0619876 0.00432472 0)
(-0.0629466 0.00266846 0)
(-0.0634472 0.000971958 0)
(-0.0634815 -0.000743209 0)
(-0.0630477 -0.00245499 0)
(-0.0621495 -0.00414084 0)
(-0.0607967 -0.00577779 0)
(-0.0590053 -0.00734248 0)
(-0.0567974 -0.00881134 0)
(-0.054201 -0.0101607 0)
(-0.0512505 -0.0113672 0)
(-0.0479863 -0.0124079 0)
(-0.0444542 -0.0132607 0)
(-0.040706 -0.013905 0)
(-0.036798 -0.0143223 0)
(-0.032791 -0.0144963 0)
(-0.0287495 -0.0144144 0)
(-0.0247404 -0.0140682 0)
(-0.0208317 -0.0134545 0)
(-0.0170917 -0.012577 0)
(-0.0135867 -0.0114472 0)
(-0.0103794 -0.0100872 0)
(-0.00752713 -0.00853137 0)
(-0.00508009 -0.00683018 0)
(-0.00307818 -0.00505385 0)
(-0.00154757 -0.00329679 0)
(-0.000520384 -0.00168242 0)
(-6.91704e-05 -0.000379005 0)
(-9.38278e-05 0.000739734 0)
(-0.000671723 0.00269768 0)
(-0.00195138 0.0049027 0)
(-0.0038136 0.00718589 0)
(-0.00619892 0.0094221 0)
(-0.00906348 0.0115157 0)
(-0.0123529 0.0133962 0)
(-0.0160058 0.0150146 0)
(-0.0199566 0.0163386 0)
(-0.0241367 0.0173495 0)
(-0.0284761 0.0180392 0)
(-0.0329041 0.0184081 0)
(-0.0373511 0.0184627 0)
(-0.0417495 0.0182147 0)
(-0.0460343 0.0176795 0)
(-0.0501442 0.0168753 0)
(-0.0540218 0.0158223 0)
(-0.0576146 0.0145424 0)
(-0.0608745 0.0130585 0)
(-0.0637588 0.0113946 0)
(-0.0662301 0.00957527 0)
(-0.0682566 0.00762566 0)
(-0.0698119 0.00557155 0)
(-0.0708757 0.00343923 0)
(-0.0714333 0.00125562 0)
(-0.0714763 -0.000951808 0)
(-0.0710023 -0.00315494 0)
(-0.0700154 -0.00532507 0)
(-0.068526 -0.00743295 0)
(-0.066551 -0.00944886 0)
(-0.064114 -0.0113428 0)
(-0.0612452 -0.0130848 0)
(-0.0579815 -0.0146451 0)
(-0.0543661 -0.0159945 0)
(-0.0504488 -0.0171053 0)
(-0.0462849 -0.0179514 0)
(-0.0419356 -0.0185091 0)
(-0.0374666 -0.0187584 0)
(-0.0329477 -0.0186832 0)
(-0.0284516 -0.0182731 0)
(-0.0240529 -0.0175242 0)
(-0.0198262 -0.0164408 0)
(-0.0158449 -0.015037 0)
(-0.0121795 -0.0133391 0)
(-0.00889571 -0.0113876 0)
(-0.00605325 -0.00924058 0)
(-0.00370275 -0.00697697 0)
(-0.00188227 -0.00470022 0)
(-0.000642285 -0.00254156 0)
(-8.80669e-05 -0.000673333 0)
(-0.000111856 0.00111145 0)
(-0.000790307 0.00375592 0)
(-0.00227955 0.00659656 0)
(-0.00442829 0.00946451 0)
(-0.00715832 0.0122313 0)
(-0.0104131 0.0147968 0)
(-0.0141267 0.0170857 0)
(-0.0182278 0.0190446 0)
(-0.022642 0.0206383 0)
(-0.0272934 0.021846 0)
(-0.0321052 0.0226592 0)
(-0.0370007 0.0230784 0)
(-0.0419049 0.0231122 0)
(-0.0467452 0.0227747 0)
(-0.0514522 0.0220845 0)
(-0.0559604 0.021064 0)
(-0.0602088 0.0197378 0)
(-0.0641413 0.0181326 0)
(-0.067707 0.0162767 0)
(-0.0708604 0.0141993 0)
(-0.0735619 0.0119306 0)
(-0.0757775 0.00950162 0)
(-0.0774792 0.00694394 0)
(-0.0786453 0.00428992 0)
(-0.0792602 0.00157263 0)
(-0.0793146 -0.00117413 0)
(-0.078806 -0.00391584 0)
(-0.0777382 -0.00661721 0)
(-0.076122 -0.00924229 0)
(-0.0739751 -0.0117546 0)
(-0.0713223 -0.0141173 0)
(-0.0681952 -0.0162934 0)
(-0.0646328 -0.0182465 0)
(-0.0606809 -0.0199409 0)
(-0.0563921 -0.0213422 0)
(-0.0518255 -0.0224186 0)
(-0.0470461 -0.023141 0)
(-0.0421243 -0.0234846 0)
(-0.0371351 -0.0234297 0)
(-0.0321569 -0.0229634 0)
(-0.0272705 -0.0220804 0)
(-0.0225573 -0.0207853 0)
(-0.0180985 -0.0190941 0)
(-0.0139726 -0.0170365 0)
(-0.0102548 -0.0146581 0)
(-0.00701527 -0.0120232 0)
(-0.00431615 -0.00921809 0)
(-0.00220795 -0.00635307 0)
(-0.00075911 -0.00356511 0)
(-0.000105571 -0.00102875 0)
(-0.000128842 0.00154257 0)
(-0.00090454 0.00497538 0)
(-0.00259896 0.00853594 0)
(-0.00503067 0.0120565 0)
(-0.00810331 0.0154071 0)
(-0.0117475 0.0184847 0)
(-0.0158855 0.021211 0)
(-0.020435 0.02353 0)
(-0.0253128 0.0254045 0)
(-0.0304347 0.0268129 0)
(-0.0357168 0.0277468 0)
(-0.0410765 0.0282081 0)
(-0.0464333 0.0282075 0)
(-0.0517096 0.0277623 0)
(-0.0568318 0.026895 0)
(-0.0617306 0.0256321 0)
(-0.0663416 0.0240034 0)
(-0.0706059 0.0220407 0)
(-0.0744697 0.0197778 0)
(-0.0778855 0.0172497 0)
(-0.0808115 0.0144925 0)
(-0.0832121 0.0115431 0)
(-0.0850579 0.00843951 0)
(-0.0863258 0.00522031 0)
(-0.0869994 0.00192503 0)
(-0.0870688 -0.00140597 0)
(-0.0865307 -0.00473138 0)
(-0.0853891 -0.00800907 0)
(-0.0836546 -0.011196 0)
(-0.0813455 -0.0142487 0)
(-0.0784872 -0.0171228 0)
(-0.0751127 -0.0197744 0)
(-0.0712623 -0.0221595 0)
(-0.066984 -0.0242355 0)
(-0.0623328 -0.025961 0)
(-0.0573712 -0.0272977 0)
(-0.0521677 -0.0282106 0)
(-0.0467971 -0.0286697 0)
(-0.0413395 -0.028651 0)
(-0.0358789 -0.0281381 0)
(-0.0305025 -0.0271242 0)
(-0.0252992 -0.0256131 0)
(-0.0203581 -0.0236219 0)
(-0.0157669 -0.0211828 0)
(-0.0116107 -0.0183455 0)
(-0.00797097 -0.0151794 0)
(-0.00492209 -0.0117764 0)
(-0.00252725 -0.00825258 0)
(-0.000872323 -0.00474925 0)
(-0.000122105 -0.00144268 0)
(-0.000145152 0.00203106 0)
(-0.0010159 0.00635247 0)
(-0.00291259 0.0107175 0)
(-0.00562511 0.0149596 0)
(-0.00903959 0.0189485 0)
(-0.0130738 0.0225796 0)
(-0.0176376 0.0257732 0)
(-0.0226378 0.028472 0)
(-0.0279813 0.0306381 0)
(-0.0335753 0.0322503 0)
(-0.0393288 0.0333012 0)
(-0.0451526 0.0337951 0)
(-0.0509607 0.0337455 0)
(-0.0566707 0.0331734 0)
(-0.0622048 0.0321058 0)
(-0.0674902 0.0305741 0)
(-0.0724595 0.0286133 0)
(-0.0770509 0.0262609 0)
(-0.0812086 0.0235565 0)
(-0.084883 0.0205413 0)
(-0.0880306 0.0172574 0)
(-0.0906143 0.0137481 0)
(-0.0926036 0.0100578 0)
(-0.0939744 0.0062316 0)
(-0.0947093 0.00231569 0)
(-0.0947976 -0.00164277 0)
(-0.0942355 -0.00559553 0)
(-0.0930267 -0.00949332 0)
(-0.0911816 -0.0132858 0)
(-0.0887186 -0.016922 0)
(-0.0856636 -0.0203502 0)
(-0.0820501 -0.0235185 0)
(-0.0779198 -0.0263754 0)
(-0.0733222 -0.0288705 0)
(-0.0683146 -0.0309553 0)
(-0.0629619 -0.032584 0)
(-0.0573366 -0.0337153 0)
(-0.0515174 -0.034313 0)
(-0.0455893 -0.0343483 0)
(-0.0396423 -0.0338006 0)
(-0.0337704 -0.0326603 0)
(-0.02807 -0.03093 0)
(-0.022639 -0.0286266 0)
(-0.0175748 -0.025784 0)
(-0.0129734 -0.0224547 0)
(-0.00892822 -0.0187121 0)
(-0.00552637 -0.0146529 0)
(-0.00284389 -0.0103977 0)
(-0.000983678 -0.00609179 0)
(-0.000138082 -0.00191353 0)
(-0.000161113 0.00257574 0)
(-0.00112588 0.00788518 0)
(-0.00322373 0.0131394 0)
(-0.00621683 0.0181732 0)
(-0.00997416 0.0228562 0)
(-0.0144006 0.0270835 0)
(-0.0193936 0.0307751 0)
(-0.0248483 0.0338737 0)
(-0.0306614 0.0363422 0)
(-0.0367314 0.0381607 0)
(-0.0429593 0.0393243 0)
(-0.0492494 0.0398401 0)
(-0.0555099 0.0397258 0)
(-0.0616537 0.0390066 0)
(-0.067599 0.0377148 0)
(-0.0732695 0.0358871 0)
(-0.0785949 0.0335643 0)
(-0.0835112 0.03079 0)
(-0.0879605 0.0276101 0)
(-0.0918916 0.0240718 0)
(-0.0952596 0.020224 0)
(-0.0980263 0.0161163 0)
(-0.10016 0.0117998 0)
(-0.101636 0.00732607 0)
(-0.102435 0.00274824 0)
(-0.102547 -0.00187964 0)
(-0.101967 -0.00650223 0)
(-0.100697 -0.011063 0)
(-0.0987489 -0.0155041 0)
(-0.0961397 -0.0197668 0)
(-0.0928957 -0.0237915 0)
(-0.0890507 -0.0275183 0)
(-0.0846471 -0.0308876 0)
(-0.0797355 -0.0338408 0)
(-0.0743753 -0.0363214 0)
(-0.0686337 -0.0382759 0)
(-0.0625863 -0.0396554 0)
(-0.056316 -0.0404172 0)
(-0.0499129 -0.0405263 0)
(-0.0434728 -0.0399574 0)
(-0.0370968 -0.0386968 0)
(-0.0308896 -0.0367447 0)
(-0.0249584 -0.0341172 0)
(-0.0194111 -0.0308485 0)
(-0.0143551 -0.0269929 0)
(-0.0098965 -0.0226269 0)
(-0.00613579 -0.0178508 0)
(-0.00316205 -0.0127896 0)
(-0.00109499 -0.00759249 0)
(-0.000153881 -0.00244068 0)
(-0.000177011 0.00317623 0)
(-0.00123588 0.00957314 0)
(-0.00353568 0.0158022 0)
(-0.0068112 0.0216987 0)
(-0.0109144 0.0271328 0)
(-0.0157374 0.032 0)
(-0.0211645 0.036221 0)
(-0.0270792 0.0397399 0)
(-0.0333675 0.0425214 0)
(-0.0399186 0.0445484 0)
(-0.0466255 0.0458194 0)
(-0.0533854 0.0463458 0)
(-0.0601009 0.04615 0)
(-0.0666801 0.0452627 0)
(-0.0730371 0.0437217 0)
(-0.0790924 0.0415702 0)
(-0.0847731 0.0388551 0)
(-0.0900131 0.0356267 0)
(-0.094753 0.0319371 0)
(-0.09894 0.0278405 0)
(-0.102528 0.0233922 0)
(-0.105478 0.0186486 0)
(-0.107758 0.0136673 0)
(-0.109341 0.00850678 0)
(-0.110209 0.00322692 0)
(-0.110349 -0.00211123 0)
(-0.109757 -0.00744517 0)
(-0.108434 -0.012711 0)
(-0.10639 -0.0178432 0)
(-0.103643 -0.0227752 0)
(-0.100217 -0.0274393 0)
(-0.096148 -0.0317672 0)
(-0.0914774 -0.0356906 0)
(-0.0862568 -0.0391424 0)
(-0.080547 -0.0420573 0)
(-0.0744175 -0.0443732 0)
(-0.0679467 -0.0460332 0)
(-0.0612215 -0.0469867 0)
(-0.054337 -0.0471918 0)
(-0.0473953 -0.046617 0)
(-0.0405049 -0.0452437 0)
(-0.033779 -0.0430686 0)
(-0.0273349 -0.0401053 0)
(-0.0212915 -0.0363875 0)
(-0.0157687 -0.0319702 0)
(-0.010886 -0.0269319 0)
(-0.00675754 -0.0213763 0)
(-0.003486 -0.0154323 0)
(-0.00120804 -0.00925322 0)
(-0.000169847 -0.00302452 0)
(-0.000193091 0.00383287 0)
(-0.00134721 0.0114176 0)
(-0.00385156 0.0187081 0)
(-0.00741344 0.0255397 0)
(-0.0118677 0.0317829 0)
(-0.0170932 0.0373346 0)
(-0.0229613 0.042117 0)
(-0.0293429 0.0460768 0)
(-0.0361132 0.0491817 0)
(-0.0431516 0.0514188 0)
(-0.0503428 0.0527912 0)
(-0.0575769 0.0533158 0)
(-0.0647505 0.0530206 0)
(-0.0717669 0.0519429 0)
(-0.0785364 0.0501272 0)
(-0.0849764 0.0476233 0)
(-0.0910118 0.0444852 0)
(-0.0965746 0.04077 0)
(-0.101604 0.0365371 0)
(-0.106046 0.0318472 0)
(-0.109854 0.0267625 0)
(-0.112989 0.0213463 0)
(-0.115416 0.0156628 0)
(-0.11711 0.0097773 0)
(-0.118051 0.00375646 0)
(-0.118225 -0.0023317 0)
(-0.117627 -0.00841757 0)
(-0.116258 -0.0144298 0)
(-0.114127 -0.0202953 0)
(-0.11125 -0.0259395 0)
(-0.107651 -0.0312861 0)
(-0.103366 -0.0362583 0)
(-0.0984349 -0.0407789 0)
(-0.0929107 -0.0447713 0)
(-0.0868549 -0.0481609 0)
(-0.0803385 -0.0508764 0)
(-0.073443 -0.0528516 0)
(-0.0662588 -0.0540271 0)
(-0.0588862 -0.0543527 0)
(-0.0514334 -0.0537898 0)
(-0.0440167 -0.0523133 0)
(-0.0367586 -0.0499149 0)
(-0.0297868 -0.0466049 0)
(-0.0232321 -0.0424149 0)
(-0.0172276 -0.0373995 0)
(-0.0119069 -0.0316387 0)
(-0.00739879 -0.0252387 0)
(-0.00381995 -0.0183324 0)
(-0.00132453 -0.0110779 0)
(-0.000186291 -0.00366635 0)
(-0.000209564 0.00454664 0)
(-0.00146103 0.0134211 0)
(-0.00417425 0.0218612 0)
(-0.00802843 0.0297015 0)
(-0.0128409 0.0368132 0)
(-0.0184768 0.0430946 0)
(-0.0247941 0.0484709 0)
(-0.0316509 0.0528919 0)
(-0.0389108 0.0563302 0)
(-0.0464432 0.0587781 0)
(-0.0541242 0.0602448 0)
(-0.0618365 0.0607537 0)
(-0.069471 0.0603401 0)
(-0.076926 0.0590487 0)
(-0.0841081 0.0569314 0)
(-0.090932 0.0540458 0)
(-0.0973205 0.0504534 0)
(-0.103204 0.0462189 0)
(-0.108521 0.0414088 0)
(-0.113217 0.0360911 0)
(-0.117244 0.0303351 0)
(-0.120563 0.0242106 0)
(-0.12314 0.0177887 0)
(-0.124947 0.0111413 0)
(-0.125965 0.00434193 0)
(-0.126179 -0.00253473 0)
(-0.125583 -0.00941198 0)
(-0.124177 -0.0162112 0)
(-0.121967 -0.0228516 0)
(-0.11897 -0.0292505 0)
(-0.115209 -0.0353232 0)
(-0.110716 -0.0409838 0)
(-0.105534 -0.0461457 0)
(-0.0997132 -0.0507225 0)
(-0.0933162 -0.0546296 0)
(-0.0864157 -0.0577853 0)
(-0.0790951 -0.0601131 0)
(-0.0714487 -0.0615438 0)
(-0.0635814 -0.0620175 0)
(-0.055608 -0.0614867 0)
(-0.0476528 -0.0599188 0)
(-0.0398477 -0.0572988 0)
(-0.0323317 -0.0536321 0)
(-0.0252483 -0.0489469 0)
(-0.0187446 -0.0432966 0)
(-0.0129692 -0.0367615 0)
(-0.00806649 -0.0294501 0)
(-0.00416793 -0.0214993 0)
(-0.00144604 -0.0130727 0)
(-0.000203494 -0.00436834 0)
(-0.000226613 0.00531913 0)
(-0.00157836 0.0155879 0)
(-0.00450636 0.0252677 0)
(-0.00866062 0.0341918 0)
(-0.0138402 0.0422321 0)
(-0.0198962 0.049289 0)
(-0.0266722 0.0552913 0)
(-0.0340132 0.0601935 0)
(-0.0417707 0.0639742 0)
(-0.0498038 0.0666324 0)
(-0.0579795 0.0681847 0)
(-0.0661735 0.0686627 0)
(-0.0742702 0.0681102 0)
(-0.0821636 0.0665802 0)
(-0.0897567 0.0641334 0)
(-0.0969618 0.0608358 0)
(-0.1037 0.0567574 0)
(-0.1099 0.0519707 0)
(-0.115501 0.04655 0)
(-0.120448 0.0405707 0)
(-0.124692 0.0341091 0)
(-0.128195 0.027242 0)
(-0.130921 0.0200469 0)
(-0.132845 0.0126025 0)
(-0.133944 0.00498854 0)
(-0.134204 -0.00271351 0)
(-0.133618 -0.0104202 0)
(-0.132183 -0.0180457 0)
(-0.129906 -0.0255017 0)
(-0.126801 -0.0326975 0)
(-0.122889 -0.0395399 0)
(-0.118201 -0.0459336 0)
(-0.112778 -0.0517822 0)
(-0.10667 -0.0569891 0)
(-0.09994 -0.0614585 0)
(-0.0926603 -0.0650977 0)
(-0.0849166 -0.0678188 0)
(-0.0768065 -0.0695411 0)
(-0.0684394 -0.0701937 0)
(-0.0599368 -0.0697187 0)
(-0.0514309 -0.068074 0)
(-0.0430637 -0.0652363 0)
(-0.034986 -0.0612046 0)
(-0.0273548 -0.0560022 0)
(-0.020332 -0.0496799 0)
(-0.0140825 -0.0423176 0)
(-0.00876727 -0.0340257 0)
(-0.00453374 -0.0249451 0)
(-0.00157408 -0.0152453 0)
(-0.000221716 -0.00513346 0)
(-0.000244401 0.00615242 0)
(-0.00170016 0.0179232 0)
(-0.00485023 0.0289351 0)
(-0.00931401 0.0390198 0)
(-0.0148713 0.0480496 0)
(-0.0213582 0.055928 0)
(-0.0286036 0.062588 0)
(-0.0364382 0.0679904 0)
(-0.0447013 0.072121 0)
(-0.053241 0.0749871 0)
(-0.0619153 0.0766145 0)
(-0.0705923 0.0770445 0)
(-0.0791506 0.0763304 0)
(-0.0874797 0.0745354 0)
(-0.0954795 0.0717297 0)
(-0.10306 0.067989 0)
(-0.110141 0.0633922 0)
(-0.116652 0.0580204 0)
(-0.12253 0.0519561 0)
(-0.127721 0.0452822 0)
(-0.132179 0.0380822 0)
(-0.135862 0.0304396 0)
(-0.138737 0.0224386 0)
(-0.140778 0.0141638 0)
(-0.141962 0.00570148 0)
(-0.142275 -0.00286075 0)
(-0.141707 -0.0114329 0)
(-0.140255 -0.0199224 0)
(-0.137923 -0.0282335 0)
(-0.134724 -0.0362676 0)
(-0.130676 -0.0439229 0)
(-0.125808 -0.0510948 0)
(-0.120159 -0.0576766 0)
(-0.113778 -0.0635607 0)
(-0.106725 -0.0686398 0)
(-0.099075 -0.0728088 0)
(-0.0909137 -0.0759671 0)
(-0.0823414 -0.0780211 0)
(-0.0734722 -0.0788874 0)
(-0.0644335 -0.0784956 0)
(-0.0553659 -0.0767922 0)
(-0.0464218 -0.0737441 0)
(-0.0377643 -0.0693414 0)
(-0.0295647 -0.0636013 0)
(-0.0220011 -0.0565704 0)
(-0.0152557 -0.0483272 0)
(-0.0095074 -0.0389834 0)
(-0.00492101 -0.0286841 0)
(-0.00171006 -0.0176058 0)
(-0.000241199 -0.00596545 0)
(-0.00026307 0.00704904 0)
(-0.00182723 0.0204333 0)
(-0.00520798 0.0328726 0)
(-0.00999219 0.0441961 0)
(-0.0159391 0.0542773 0)
(-0.022869 0.0630228 0)
(-0.0305948 0.0703714 0)
(-0.0389325 0.0762913 0)
(-0.0477084 0.0807772 0)
(-0.0567594 0.0838466 0)
(-0.065934 0.0855361 0)
(-0.0750929 0.0858981 0)
(-0.0841089 0.0849977 0)
(-0.0928674 0.0829091 0)
(-0.101266 0.0797138 0)
(-0.109212 0.0754976 0)
(-0.116625 0.0703495 0)
(-0.123436 0.0643598 0)
(-0.129581 0.0576194 0)
(-0.135008 0.0502191 0)
(-0.139669 0.0422494 0)
(-0.143528 0.0338007 0)
(-0.146549 0.0249631 0)
(-0.148707 0.0158275 0)
(-0.14998 0.00648566 0)
(-0.150351 -0.00296883 0)
(-0.14981 -0.01244 0)
(-0.148354 -0.0218287 0)
(-0.145982 -0.0310325 0)
(-0.142706 -0.0399449 0)
(-0.13854 -0.0484556 0)
(-0.133511 -0.0564506 0)
(-0.127655 -0.0638127 0)
(-0.121018 -0.0704229 0)
(-0.11366 -0.0761612 0)
(-0.105653 -0.0809094 0)
(-0.0970841 -0.0845526 0)
(-0.0880557 -0.0869828 0)
(-0.0786855 -0.0881019 0)
(-0.0691069 -0.0878253 0)
(-0.0594688 -0.086086 0)
(-0.0499342 -0.0828383 0)
(-0.0406791 -0.078062 0)
(-0.0318901 -0.0717658 0)
(-0.0237624 -0.0639907 0)
(-0.0164971 -0.0548124 0)
(-0.0102928 -0.0443436 0)
(-0.00533316 -0.0327333 0)
(-0.00185531 -0.0201655 0)
(-0.000262173 -0.00686877 0)
(-0.000282753 0.00801194 0)
(-0.00196037 0.0231257 0)
(-0.00558154 0.0370905 0)
(-0.0106984 0.0497329 0)
(-0.0170481 0.0609275 0)
(-0.0244337 0.0705853 0)
(-0.0326512 0.0786517 0)
(-0.041501 0.0851042 0)
(-0.0507956 0.0899481 0)
(-0.0603603 0.0932129 0)
(-0.0700341 0.0949481 0)
(-0.07967 0.0952195 0)
(-0.0891356 0.094105 0)
(-0.0983125 0.091692 0)
(-0.107095 0.0880742 0)
(-0.115392 0.0833491 0)
(-0.123123 0.0776163 0)
(-0.130216 0.070976 0)
(-0.136613 0.0635279 0)
(-0.142261 0.0553708 0)
(-0.147116 0.0466025 0)
(-0.151141 0.0373195 0)
(-0.154302 0.027618 0)
(-0.156575 0.0175943 0)
(-0.157938 0.00734541 0)
(-0.158374 -0.00302985 0)
(-0.157871 -0.01343 0)
(-0.156423 -0.0237503 0)
(-0.154029 -0.0338815 0)
(-0.150695 -0.04371 0)
(-0.146434 -0.0531172 0)
(-0.141269 -0.0619797 0)
(-0.13523 -0.0701695 0)
(-0.128362 -0.0775557 0)
(-0.12072 -0.0840051 0)
(-0.112376 -0.0893848 0)
(-0.103416 -0.0935645 0)
(-0.0939434 -0.09642 0)
(-0.0840785 -0.0978365 0)
(-0.0739606 -0.0977126 0)
(-0.0637465 -0.0959654 0)
(-0.0536101 -0.0925342 0)
(-0.0437407 -0.0873859 0)
(-0.0343412 -0.0805184 0)
(-0.0256253 -0.0719652 0)
(-0.0178145 -0.0617981 0)
(-0.0111289 -0.0501292 0)
(-0.00577345 -0.0371117 0)
(-0.00201114 -0.0229376 0)
(-0.000284861 -0.00784853 0)
(-0.000303576 0.00904447 0)
(-0.00210029 0.0260086 0)
(-0.00597272 0.0416004 0)
(-0.0114356 0.0556434 0)
(-0.0182021 0.0680138 0)
(-0.0260567 0.0786277 0)
(-0.034777 0.087439 0)
(-0.0441467 0.0944358 0)
(-0.0539638 0.0996367 0)
(-0.0640416 0.103085 0)
(-0.0742093 0.104846 0)
(-0.0843128 0.105 0)
(-0.0942144 0.10364 0)
(-0.103793 0.100869 0)
(-0.112941 0.0967938 0)
(-0.121567 0.0915249 0)
(-0.129591 0.0851735 0)
(-0.136946 0.0778503 0)
(-0.143573 0.0696642 0)
(-0.149423 0.0607222 0)
(-0.154454 0.0511288 0)
(-0.158631 0.0409869 0)
(-0.161924 0.030398 0)
(-0.164307 0.0194632 0)
(-0.16576 0.00828415 0)
(-0.166266 -0.00303585 0)
(-0.165811 -0.0143907 0)
(-0.164387 -0.0256704 0)
(-0.16199 -0.0367602 0)
(-0.158623 -0.0475395 0)
(-0.154295 -0.057882 0)
(-0.149022 -0.0676548 0)
(-0.142832 -0.0767195 0)
(-0.135764 -0.0849325 0)
(-0.127869 -0.0921467 0)
(-0.119216 -0.0982135 0)
(-0.109888 -0.102986 0)
(-0.0999894 -0.106321 0)
(-0.0896429 -0.108085 0)
(-0.078992 -0.108158 0)
(-0.0682011 -0.106437 0)
(-0.057455 -0.102845 0)
(-0.0469569 -0.0973313 0)
(-0.0369267 -0.0898818 0)
(-0.0275981 -0.0805195 0)
(-0.0192149 -0.0693102 0)
(-0.0120211 -0.056365 0)
(-0.00624503 -0.0418404 0)
(-0.0021788 -0.025937 0)
(-0.000309484 -0.00891055 0)
(-0.000325666 0.0101503 0)
(-0.00224772 0.0290913 0)
(-0.00638331 0.046415 0)
(-0.0122067 0.0619417 0)
(-0.0194049 0.0755499 0)
(-0.0277417 0.087162 0)
(-0.0369751 0.096742 0)
(-0.0468708 0.104291 0)
(-0.0572114 0.109843 0)
(-0.0677977 0.113459 0)
(-0.0784492 0.115219 0)
(-0.0890046 0.115225 0)
(-0.0993218 0.113585 0)
(-0.109277 0.110418 0)
(-0.118762 0.105848 0)
(-0.127688 0.0999994 0)
(-0.135976 0.0929952 0)
(-0.143561 0.0849575 0)
(-0.150389 0.0760047 0)
(-0.156415 0.0662519 0)
(-0.161599 0.0558106 0)
(-0.16591 0.0447893 0)
(-0.16932 0.0332943 0)
(-0.171806 0.0214307 0)
(-0.173347 0.00930402 0)
(-0.173927 -0.00297902 0)
(-0.173531 -0.0153085 0)
(-0.172149 -0.0275704 0)
(-0.169772 -0.0396449 0)
(-0.166401 -0.0514056 0)
(-0.162037 -0.0627186 0)
(-0.156693 -0.0734425 0)
(-0.15039 -0.0834279 0)
(-0.143161 -0.0925187 0)
(-0.135052 -0.100553 0)
(-0.126126 -0.107366 0)
(-0.116464 -0.112791 0)
(-0.106168 -0.116665 0)
(-0.0953614 -0.118834 0)
(-0.0841913 -0.119155 0)
(-0.0728293 -0.117503 0)
(-0.0614705 -0.113779 0)
(-0.0503326 -0.107915 0)
(-0.0396535 -0.0998779 0)
(-0.0296881 -0.0896793 0)
(-0.0207051 -0.0773766 0)
(-0.0129744 -0.0630779 0)
(-0.006751 -0.0469425 0)
(-0.00235955 -0.0291799 0)
(-0.000336271 -0.0100613 0)
(-0.000349161 0.0113336 0)
(-0.00240343 0.0323837 0)
(-0.00681518 0.0515478 0)
(-0.0130146 0.0686429 0)
(-0.0206599 0.0835502 0)
(-0.0294921 0.0961999 0)
(-0.0392477 0.106568 0)
(-0.049673 0.114672 0)
(-0.0605343 0.120564 0)
(-0.0716195 0.124323 0)
(-0.0827382 0.126053 0)
(-0.0937225 0.125872 0)
(-0.104426 0.123912 0)
(-0.114725 0.12031 0)
(-0.124511 0.115205 0)
(-0.133697 0.108738 0)
(-0.142208 0.101047 0)
(-0.149985 0.0922637 0)
(-0.156977 0.0825178 0)
(-0.163143 0.0719319 0)
(-0.16845 0.0606241 0)
(-0.17287 0.048708 0)
(-0.176379 0.036294 0)
(-0.178955 0.0234905 0)
(-0.180581 0.0104054 0)
(-0.181238 -0.00285197 0)
(-0.180911 -0.0161692 0)
(-0.179589 -0.0294291 0)
(-0.177259 -0.0425082 0)
(-0.173915 -0.0552751 0)
(-0.169554 -0.0675894 0)
(-0.164183 -0.0793014 0)
(-0.157815 -0.0902514 0)
(-0.150474 -0.10027 0)
(-0.1422 -0.109181 0)
(-0.133049 -0.116801 0)
(-0.123098 -0.122944 0)
(-0.112443 -0.127424 0)
(-0.101207 -0.130062 0)
(-0.0895411 -0.13069 0)
(-0.0776215 -0.129158 0)
(-0.0656537 -0.125342 0)
(-0.0538697 -0.119149 0)
(-0.0425263 -0.110527 0)
(-0.0319016 -0.0994704 0)
(-0.022291 -0.0860258 0)
(-0.0139937 -0.0702962 0)
(-0.00729445 -0.0524429 0)
(-0.0025547 -0.0326841 0)
(-0.000365459 -0.0113078 0)
(-0.000374218 0.0125989 0)
(-0.0025683 0.0358969 0)
(-0.0072704 0.0570138 0)
(-0.0138626 0.0757629 0)
(-0.0219708 0.0920289 0)
(-0.0313112 0.105752 0)
(-0.0415964 0.116923 0)
(-0.0525516 0.125578 0)
(-0.063926 0.13179 0)
(-0.0754939 0.135662 0)
(-0.0870555 0.137322 0)
(-0.0984367 0.136913 0)
(-0.109489 0.134587 0)
(-0.120086 0.130503 0)
(-0.130125 0.12482 0)
(-0.139521 0.117696 0)
(-0.148205 0.109283 0)
(-0.156122 0.0997256 0)
(-0.16323 0.0891628 0)
(-0.169493 0.0777255 0)
(-0.174885 0.0655379 0)
(-0.179382 0.052718 0)
(-0.182964 0.0393793 0)
(-0.185615 0.0256322 0)
(-0.187316 0.0115863 0)
(-0.188051 -0.00264814 0)
(-0.187805 -0.0169575 0)
(-0.186562 -0.0312231 0)
(-0.184308 -0.0453188 0)
(-0.181029 -0.0591096 0)
(-0.176718 -0.0724498 0)
(-0.171371 -0.0851822 0)
(-0.164993 -0.0971371 0)
(-0.157601 -0.108133 0)