/*--------------------------------*- C++ -*----------------------------------*\
  =========                 |
  \\      /  F ield         | OpenFOAM: The Open Source CFD Toolbox
   \\    /   O peration     | Website:  https://openfoam.org
    \\  /    A nd           | Version:  7
     \\/     M anipulation  |
\*---------------------------------------------------------------------------*/
FoamFile
{
    version     2.0;
    format      ascii;
    class       surfaceScalarField;
    location    "0.053";
    object      phi;
}
// * * * * * * * * * * * * * * * * * * * * * * * * * * * * * * * * * * * * * //

dimensions      [0 3 -1 0 0 0 0];

internalField   nonuniform List<scalar> 
4900
(
1.06691e-09
-1.07389e-09
2.14383e-09
-1.07696e-09
2.14973e-09
-5.90868e-12
7.33973e-10
1.41578e-09
-2.18151e-09
2.91547e-09
-6.5118e-09
4.33028e-09
-1.20983e-08
5.58656e-09
-1.87504e-08
6.65199e-09
-2.62656e-08
7.51529e-09
-3.44414e-08
8.17573e-09
-4.30797e-08
8.63834e-09
-5.19912e-08
8.91147e-09
-6.09966e-08
9.00546e-09
-6.99284e-08
8.93179e-09
-7.8631e-08
8.70259e-09
-8.69614e-08
8.33036e-09
-9.47891e-08
7.82773e-09
-1.01996e-07
7.2074e-09
-1.08479e-07
6.48206e-09
-1.14143e-07
5.66438e-09
-1.1891e-07
4.76708e-09
-1.22713e-07
3.8029e-09
-1.25498e-07
2.78476e-09
-1.27223e-07
1.72578e-09
-1.27863e-07
6.39382e-10
-1.27402e-07
-4.60671e-10
-1.25842e-07
-1.5602e-09
-1.23197e-07
-2.64455e-09
-1.19499e-07
-3.69865e-09
-1.14792e-07
-4.70696e-09
-1.09138e-07
-5.65359e-09
-1.02616e-07
-6.52234e-09
-9.5319e-08
-7.29689e-09
-8.73581e-08
-7.96093e-09
-7.88597e-08
-8.49836e-09
-6.99661e-08
-8.89359e-09
-6.08343e-08
-9.13179e-09
-5.16351e-08
-9.19921e-09
-4.25516e-08
-9.08356e-09
-3.37771e-08
-8.77446e-09
-2.55131e-08
-8.26398e-09
-1.79656e-08
-7.54749e-09
-1.13407e-08
-6.62493e-09
-5.83756e-09
-5.50314e-09
-1.63699e-09
-4.20057e-09
1.12085e-09
-2.75785e-09
2.37702e-09
-1.2562e-09
2.22031e-09
1.5666e-10
1.07066e-09
1.14956e-09
1.07058e-09
1.08455e-09
-2.15844e-09
1.13605e-09
-1.12844e-09
-1.37143e-09
2.50154e-09
-7.17056e-09
7.2149e-09
-1.646e-08
1.22049e-08
-2.91275e-08
1.69978e-08
-4.48696e-08
2.13286e-08
-6.32739e-08
2.50563e-08
-8.38712e-08
2.81125e-08
-1.06167e-07
3.04719e-08
-1.29665e-07
3.21359e-08
-1.53876e-07
3.31222e-08
-1.7833e-07
3.34598e-08
-2.02582e-07
3.31842e-08
-2.26216e-07
3.23357e-08
-2.48842e-07
3.09572e-08
-2.70108e-07
2.90935e-08
-2.89691e-07
2.67904e-08
-3.07304e-07
2.40945e-08
-3.22692e-07
2.10529e-08
-3.35638e-07
1.77131e-08
-3.45958e-07
1.41231e-08
-3.53505e-07
1.03319e-08
-3.58169e-07
6.38898e-09
-3.59874e-07
2.34518e-09
-3.58588e-07
-1.74743e-09
-3.54312e-07
-5.83538e-09
-3.47093e-07
-9.86368e-09
-3.37016e-07
-1.37759e-08
-3.24209e-07
-1.75141e-08
-3.08843e-07
-2.10196e-08
-2.91133e-07
-2.42326e-08
-2.71336e-07
-2.70934e-08
-2.49755e-07
-2.95426e-08
-2.2673e-07
-3.15225e-08
-2.02646e-07
-3.29776e-08
-1.77922e-07
-3.38557e-08
-1.53012e-07
-3.411e-08
-1.28395e-07
-3.37e-08
-1.04576e-07
-3.2594e-08
-8.20682e-08
-3.07714e-08
-6.13887e-08
-2.8227e-08
-4.30378e-08
-2.49759e-08
-2.74777e-08
-2.10633e-08
-1.50983e-08
-1.65799e-08
-6.1666e-09
-1.16895e-08
-7.45373e-10
-6.67736e-09
1.44329e-09
-2.03186e-09
1.16069e-09
1.43235e-09
2.23122e-09
6.56003e-11
-2.22406e-09
-2.39753e-09
1.33473e-09
-8.8696e-09
8.97362e-09
-2.00849e-08
1.84302e-08
-3.62567e-08
2.83767e-08
-5.72344e-08
3.79755e-08
-8.26166e-08
4.67109e-08
-1.11842e-07
5.42818e-08
-1.44253e-07
6.05239e-08
-1.79143e-07
6.53616e-08
-2.15785e-07
6.87776e-08
-2.53456e-07
7.07935e-08
-2.91454e-07
7.14573e-08
-3.29104e-07
7.08349e-08
-3.65773e-07
6.90041e-08
-4.00866e-07
6.60511e-08
-4.3384e-07
6.20674e-08
-4.64198e-07
5.71483e-08
-4.91495e-07
5.13915e-08
-5.15339e-07
4.48968e-08
-5.35392e-07
3.77654e-08
-5.51369e-07
3.01003e-08
-5.63043e-07
2.20062e-08
-5.70244e-07
1.35898e-08
-5.72859e-07
4.96031e-09
-5.70836e-07
-3.77047e-09
-5.64184e-07
-1.24879e-08
-5.52973e-07
-2.10742e-08
-5.3734e-07
-2.94091e-08
-5.17485e-07
-3.73694e-08
-4.93674e-07
-4.48304e-08
-4.6624e-07
-5.16662e-08
-4.35582e-07
-5.77511e-08
-4.02164e-07
-6.29612e-08
-3.6651e-07
-6.71762e-08
-3.29206e-07
-7.02818e-08
-2.90889e-07
-7.21723e-08
-2.52245e-07
-7.27539e-08
-2.13997e-07
-7.19481e-08
-1.76894e-07
-6.9697e-08
-1.41697e-07
-6.5969e-08
-1.09156e-07
-6.07673e-08
-7.99908e-08
-5.41416e-08
-5.4848e-08
-4.6206e-08
-3.42607e-08
-3.71672e-08
-1.8581e-08
-2.73693e-08
-7.89191e-09
-1.73665e-08
-1.89847e-09
-8.02535e-09
2.18304e-10
-6.84333e-10
2.44952e-09
-1.31822e-09
-9.05852e-10
-7.03539e-09
7.05184e-09
-1.82553e-08
2.01936e-08
-3.55262e-08
3.57011e-08
-5.89547e-08
5.18052e-08
-8.82964e-08
6.73171e-08
-1.23046e-07
8.14604e-08
-1.62516e-07
9.37519e-08
-2.05901e-07
1.03909e-07
-2.52328e-07
1.11788e-07
-3.00889e-07
1.17339e-07
-3.50675e-07
1.2058e-07
-4.00795e-07
1.21577e-07
-4.50388e-07
1.20428e-07
-4.9864e-07
1.17255e-07
-5.44785e-07
1.12196e-07
-5.88118e-07
1.05401e-07
-6.27996e-07
9.70257e-08
-6.63839e-07
8.72344e-08
-6.95136e-07
7.61944e-08
-7.21448e-07
6.40768e-08
-7.42403e-07
5.1056e-08
-7.57707e-07
3.73098e-08
-7.67137e-07
2.30198e-08
-7.70548e-07
8.37158e-09
-7.67874e-07
-6.44468e-09
-7.59128e-07
-2.12343e-08
-7.44404e-07
-3.57978e-08
-7.23882e-07
-4.99313e-08
-6.97824e-07
-6.34274e-08
-6.66578e-07
-7.60758e-08
-6.30579e-07
-8.76653e-08
-5.90345e-07
-9.79858e-08
-5.46475e-07
-1.06831e-07
-4.99649e-07
-1.14002e-07
-4.50621e-07
-1.1931e-07
-4.0021e-07
-1.22584e-07
-3.49291e-07
-1.23672e-07
-2.98787e-07
-1.22453e-07
-2.49644e-07
-1.1884e-07
-2.02819e-07
-1.12794e-07
-1.5925e-07
-1.04336e-07
-1.19826e-07
-9.35658e-08
-8.53434e-08
-8.06883e-08
-5.64582e-08
-6.60524e-08
-3.36195e-08
-5.0208e-08
-1.69938e-08
-3.39922e-08
-6.37919e-09
-1.864e-08
-1.12382e-09
-5.93968e-09
1.3257e-09
-2.79793e-09
1.89211e-09
-1.20723e-08
1.63262e-08
-2.84244e-08
3.65457e-08
-5.21031e-08
5.93798e-08
-8.30143e-08
8.27164e-08
-1.20764e-07
1.05067e-07
-1.64717e-07
1.25414e-07
-2.1406e-07
1.43095e-07
-2.67854e-07
1.57703e-07
-3.25082e-07
1.69016e-07
-3.84689e-07
1.76945e-07
-4.45611e-07
1.81502e-07
-5.06801e-07
1.82767e-07
-5.67245e-07
1.80872e-07
-6.25976e-07
1.75987e-07
-6.82088e-07
1.68308e-07
-7.34739e-07
1.58052e-07
-7.83161e-07
1.45448e-07
-8.26662e-07
1.30736e-07
-8.64632e-07
1.14164e-07
-8.96541e-07
9.59859e-08
-9.21947e-07
7.64624e-08
-9.40496e-07
5.58587e-08
-9.51923e-07
3.44462e-08
-9.56054e-07
1.25025e-08
-9.5281e-07
-9.68839e-09
-9.42209e-07
-3.18356e-08
-9.24365e-07
-5.36416e-08
-8.99493e-07
-7.48029e-08
-8.6791e-07
-9.5011e-08
-8.30031e-07
-1.13954e-07
-7.86377e-07
-1.3132e-07
-7.37566e-07
-1.46797e-07
-6.84312e-07
-1.60084e-07
-6.27426e-07
-1.70888e-07
-5.67801e-07
-1.78936e-07
-5.06406e-07
-1.83978e-07
-4.44279e-07
-1.858e-07
-3.82502e-07
-1.8423e-07
-3.22189e-07
-1.79153e-07
-2.6446e-07
-1.70524e-07
-2.10409e-07
-1.58387e-07
-1.61072e-07
-1.42903e-07
-1.17383e-07
-1.24377e-07
-8.01246e-08
-1.03311e-07
-4.98713e-08
-8.04613e-08
-2.69304e-08
-5.69331e-08
-1.1286e-08
-3.42844e-08
-2.55993e-09
-1.46658e-08
-1.23422e-09
-4.25369e-09
6.14583e-09
-1.71472e-08
2.92197e-08
-3.8766e-08
5.81644e-08
-6.90001e-08
8.9614e-08
-1.07497e-07
1.21213e-07
-1.53667e-07
1.51237e-07
-2.06717e-07
1.78464e-07
-2.65691e-07
2.02069e-07
-3.29518e-07
2.21529e-07
-3.97048e-07
2.36546e-07
-4.67093e-07
2.46991e-07
-5.38457e-07
2.52866e-07
-6.09957e-07
2.54268e-07
-6.80451e-07
2.51366e-07
-7.48845e-07
2.44381e-07
-8.14111e-07
2.33574e-07
-8.75295e-07
2.19235e-07
-9.31522e-07
2.01675e-07
-9.82007e-07
1.8122e-07
-1.02605e-06
1.58209e-07
-1.06306e-06
1.3299e-07
-1.09251e-06
1.05921e-07
-1.11402e-06
7.73671e-08
-1.12728e-06
4.77022e-08
-1.13209e-06
1.73088e-08
-1.12835e-06
-1.34218e-08
-1.1161e-06
-4.40893e-08
-1.09546e-06
-7.42845e-08
-1.06667e-06
-1.03591e-07
-1.03009e-06
-1.31584e-07
-9.86211e-07
-1.57838e-07
-9.35606e-07
-1.81925e-07
-8.78982e-07
-2.03421e-07
-8.17153e-07
-2.21914e-07
-7.51033e-07
-2.37008e-07
-6.81636e-07
-2.48332e-07
-6.10061e-07
-2.55553e-07
-5.37477e-07
-2.58384e-07
-4.65109e-07
-2.56598e-07
-3.94212e-07
-2.50049e-07
-3.2605e-07
-2.38686e-07
-2.61859e-07
-2.22578e-07
-2.02815e-07
-2.01947e-07
-1.49991e-07
-1.77201e-07
-1.04312e-07
-1.4899e-07
-6.65104e-08
-1.18263e-07
-3.70804e-08
-8.63631e-08
-1.62508e-08
-5.5114e-08
-3.97874e-09
-2.69378e-08
-5.21296e-09
-5.64186e-09
1.17877e-08
-2.20982e-08
4.56761e-08
-4.8973e-08
8.50392e-08
-8.5782e-08
1.26423e-07
-1.31882e-07
1.67313e-07
-1.86456e-07
2.05811e-07
-2.48525e-07
2.40533e-07
-3.16975e-07
2.7052e-07
-3.90592e-07
2.95146e-07
-4.68096e-07
3.14049e-07
-5.4817e-07
3.27066e-07
-6.29498e-07
3.34193e-07
-7.10778e-07
3.35549e-07
-7.90754e-07
3.31341e-07
-8.68222e-07
3.21849e-07
-9.42052e-07
3.07404e-07
-1.01119e-06
2.88376e-07
-1.07468e-06
2.65163e-07
-1.13165e-06
2.38189e-07
-1.18133e-06
2.0789e-07
-1.22306e-06
1.74719e-07
-1.25628e-06
1.39141e-07
-1.28054e-06
1.01632e-07
-1.29552e-06
6.26766e-08
-1.30098e-06
2.27746e-08
-1.29684e-06
-1.75653e-08
-1.28311e-06
-5.78219e-08
-1.25993e-06
-9.74633e-08
-1.22757e-06
-1.35948e-07
-1.18643e-06
-1.72725e-07
-1.13703e-06
-2.07242e-07
-1.08001e-06
-2.38943e-07
-1.01615e-06
-2.67282e-07
-9.46336e-07
-2.91725e-07
-8.71583e-07
-3.1176e-07
-7.93003e-07
-3.26913e-07
-7.11804e-07
-3.36752e-07
-6.29273e-07
-3.40914e-07
-5.4676e-07
-3.39111e-07
-4.6565e-07
-3.31159e-07
-3.8734e-07
-3.16996e-07
-3.13205e-07
-2.96714e-07
-2.44561e-07
-2.7059e-07
-1.82633e-07
-2.39129e-07
-1.28508e-07
-2.03114e-07
-8.31033e-08
-1.63668e-07
-4.71354e-08
-1.22331e-07
-2.11093e-08
-8.114e-08
-5.33492e-09
-4.27122e-08
-1.05479e-08
-6.95529e-09
1.8743e-08
-2.68732e-08
6.55939e-08
-5.89253e-08
1.17091e-07
-1.02261e-07
1.69759e-07
-1.55935e-07
2.20987e-07
-2.1888e-07
2.68756e-07
-2.89912e-07
3.11565e-07
-3.67742e-07
3.48349e-07
-4.51002e-07
3.78406e-07
-5.38273e-07
4.0132e-07
-6.28116e-07
4.16908e-07
-7.19094e-07
4.25171e-07
-8.09798e-07
4.26253e-07
-8.98867e-07
4.2041e-07
-9.85001e-07
4.07983e-07
-1.06698e-06
3.89382e-07
-1.14367e-06
3.65064e-07
-1.21403e-06
3.35523e-07
-1.27712e-06
3.01284e-07
-1.33213e-06
2.62892e-07
-1.37832e-06
2.20912e-07
-1.4151e-06
1.75922e-07
-1.44198e-06
1.28517e-07
-1.45861e-06
7.93055e-08
-1.46475e-06
2.89084e-08
-1.46028e-06
-2.20374e-08
-1.44522e-06
-7.28815e-08
-1.41972e-06
-1.2296e-07
-1.38407e-06
-1.71595e-07
-1.33869e-06
-2.18103e-07
-1.28414e-06
-2.61792e-07
-1.22112e-06
-3.01971e-07
-1.15044e-06
-3.37957e-07
-1.07308e-06
-3.69087e-07
-9.90116e-07
-3.94723e-07
-9.02754e-07
-4.14275e-07
-8.12299e-07
-4.27208e-07
-7.20145e-07
-4.33068e-07
-6.27756e-07
-4.315e-07
-5.36642e-07
-4.22273e-07
-4.48331e-07
-4.05308e-07
-3.64336e-07
-3.80708e-07
-2.86128e-07
-3.48799e-07
-2.15091e-07
-3.10165e-07
-1.52499e-07
-2.65707e-07
-9.94748e-08
-2.16692e-07
-5.69804e-08
-1.64825e-07
-2.58107e-08
-1.1231e-07
-6.62051e-09
-6.19024e-08
-1.71684e-08
-8.2029e-09
2.69458e-08
-3.14761e-08
8.88671e-08
-6.86079e-08
1.54223e-07
-1.18399e-07
2.1955e-07
-1.796e-07
2.82188e-07
-2.50884e-07
3.40041e-07
-3.30846e-07
3.91526e-07
-4.18005e-07
4.35508e-07
-5.10829e-07
4.7123e-07
-6.07755e-07
4.98246e-07
-7.07213e-07
5.16367e-07
-8.07651e-07
5.25609e-07
-9.07555e-07
5.26156e-07
-1.00546e-06
5.18319e-07
-1.09999e-06
5.02513e-07
-1.18984e-06
4.7923e-07
-1.2738e-06
4.49022e-07
-1.35076e-06
4.12489e-07
-1.41974e-06
3.70262e-07
-1.47985e-06
3.23002e-07
-1.53033e-06
2.71392e-07
-1.57054e-06
2.16134e-07
-1.59997e-06
1.57946e-07
-1.61823e-06
9.75637e-08
-1.62506e-06
3.57407e-08
-1.62035e-06
-2.67531e-08
-1.6041e-06
-8.91305e-08
-1.57647e-06
-1.50588e-07
-1.53776e-06
-2.10306e-07
-1.48841e-06
-2.67456e-07
-1.429e-06
-3.212e-07
-1.36027e-06
-3.70702e-07
-1.28309e-06
-4.15136e-07
-1.19848e-06
-4.53695e-07
-1.10759e-06
-4.85609e-07
-1.01171e-06
-5.10157e-07
-9.12226e-07
-5.26693e-07
-8.10632e-07
-5.34662e-07
-7.08503e-07
-5.33629e-07
-6.0747e-07
-5.23305e-07
-5.09197e-07
-5.03581e-07
-4.15345e-07
-4.74561e-07
-3.27543e-07
-4.366e-07
-2.47359e-07
-3.90349e-07
-1.76264e-07
-3.36803e-07
-1.15609e-07
-2.77347e-07
-6.66129e-08
-2.13821e-07
-3.03641e-08
-1.48559e-07
-7.8455e-09
-8.44211e-08
-2.50139e-08
-9.39952e-09
3.63453e-08
-3.59385e-08
1.15406e-07
-7.80624e-08
1.96347e-07
-1.34243e-07
2.75731e-07
-2.02932e-07
3.50876e-07
-2.82536e-07
4.19646e-07
-3.71418e-07
4.80407e-07
-4.67895e-07
5.31985e-07
-5.70259e-07
5.73594e-07
-6.76794e-07
6.04781e-07
-7.85796e-07
6.25369e-07
-8.95595e-07
6.35408e-07
-1.00457e-06
6.35131e-07
-1.11117e-06
6.2492e-07
-1.21393e-06
6.0527e-07
-1.31147e-06
5.76768e-07
-1.40251e-06
5.4007e-07
-1.48591e-06
4.95885e-07
-1.56061e-06
4.44962e-07
-1.62569e-06
3.88083e-07
-1.68035e-06
3.26054e-07
-1.72392e-06
2.59704e-07
-1.75586e-06
1.89882e-07
-1.77575e-06
1.17458e-07
-1.78333e-06
4.33204e-08
-1.77846e-06
-3.16219e-08
-1.76116e-06
-1.06439e-07
-1.73156e-06
-1.80183e-07
-1.68998e-06
-2.51886e-07
-1.63687e-06
-3.20568e-07
-1.57283e-06
-3.85238e-07
-1.49863e-06
-4.44906e-07
-1.41517e-06
-4.98592e-07
-1.32353e-06
-5.45339e-07
-1.22491e-06
-5.84229e-07
-1.12066e-06
-6.14404e-07
-1.01226e-06
-6.3509e-07
-9.01305e-07
-6.4562e-07
-7.8947e-07
-6.45464e-07
-6.78513e-07
-6.34262e-07
-5.70236e-07
-6.11858e-07
-4.66456e-07
-5.7834e-07
-3.68979e-07
-5.34077e-07
-2.79565e-07
-4.79764e-07
-1.99902e-07
-4.16466e-07
-1.31582e-07
-3.45666e-07
-7.60921e-08
-2.69311e-07
-3.48094e-08
-1.89841e-07
-9.02691e-09
-1.10204e-07
-3.40408e-08
-1.05615e-08
4.69068e-08
-4.03036e-08
1.45148e-07
-8.73589e-08
2.43402e-07
-1.49888e-07
3.38259e-07
-2.26047e-07
4.27035e-07
-3.13977e-07
5.07576e-07
-4.11798e-07
5.78228e-07
-5.17616e-07
6.37804e-07
-6.2954e-07
6.85517e-07
-7.4569e-07
7.20931e-07
-8.64223e-07
7.43902e-07
-9.83347e-07
7.54532e-07
-1.10134e-06
7.53121e-07
-1.21655e-06
7.40133e-07
-1.32744e-06
7.1616e-07
-1.43257e-06
6.81893e-07
-1.53059e-06
6.38099e-07
-1.62032e-06
5.85607e-07
-1.70064e-06
5.25289e-07
-1.77061e-06
4.58053e-07
-1.82939e-06
3.84836e-07
-1.87629e-06
3.06599e-07
-1.91073e-06
2.24325e-07
-1.93229e-06
1.3902e-07
-1.94069e-06
5.17126e-08
-1.93576e-06
-3.65463e-08
-1.91752e-06
-1.24681e-07
-1.88611e-06
-2.11594e-07
-1.84183e-06
-2.96165e-07
-1.78514e-06
-3.77256e-07
-1.71666e-06
-4.53718e-07
-1.63717e-06
-5.24398e-07
-1.54761e-06
-5.88153e-07
-1.44908e-06
-6.43866e-07
-1.34285e-06
-6.90461e-07
-1.23032e-06
-7.26929e-07
-1.11306e-06
-7.52353e-07
-9.92744e-07
-7.65938e-07
-8.71164e-07
-7.67044e-07
-7.50205e-07
-7.5522e-07
-6.31816e-07
-7.30247e-07
-5.17981e-07
-6.92175e-07
-4.10693e-07
-6.41366e-07
-3.1192e-07
-5.78536e-07
-2.23583e-07
-5.04803e-07
-1.47527e-07
-4.21722e-07
-8.55102e-08
-3.31328e-07
-3.92001e-08
-2.36151e-07
-1.0184e-08
-1.3922e-07
-4.42248e-08
-1.17049e-08
5.86117e-08
-4.4618e-08
1.78061e-07
-9.6579e-08
2.95363e-07
-1.65448e-07
4.07129e-07
-2.49093e-07
5.10681e-07
-3.45384e-07
6.03866e-07
-4.52194e-07
6.85038e-07
-5.67411e-07
7.5302e-07
-6.88946e-07
8.07053e-07
-8.14755e-07
8.4674e-07
-9.42846e-07
8.71994e-07
-1.0713e-06
8.82989e-07
-1.1983e-06
8.80114e-07
-1.32209e-06
8.6393e-07
-1.44107e-06
8.35137e-07
-1.55372e-06
7.94545e-07
-1.65867e-06
7.43043e-07
-1.75465e-06
6.81589e-07
-1.84054e-06
6.11183e-07
-1.91536e-06
5.32868e-07
-1.97823e-06
4.47713e-07
-2.02845e-06
3.56816e-07
-2.06542e-06
2.61297e-07
-2.0887e-06
1.62301e-07
-2.09799e-06
6.09963e-08
-2.09311e-06
-4.14204e-08
-2.07407e-06
-1.43726e-07
-2.04099e-06
-2.44671e-07
-1.99418e-06
-3.42979e-07
-1.93408e-06
-4.3735e-07
-1.86133e-06
-5.2647e-07
-1.77671e-06
-6.09018e-07
-1.68119e-06
-6.83679e-07
-1.57589e-06
-7.49164e-07
-1.46213e-06
-8.04226e-07
-1.34136e-06
-8.47691e-07
-1.21523e-06
-8.78484e-07
-1.08551e-06
-8.95663e-07
-9.54094e-07
-8.98458e-07
-8.23006e-07
-8.86308e-07
-6.94347e-07
-8.58907e-07
-5.70278e-07
-8.16244e-07
-4.52992e-07
-7.58651e-07
-3.44683e-07
-6.86845e-07
-2.47515e-07
-6.01971e-07
-1.63599e-07
-5.05638e-07
-9.49743e-08
-3.99953e-07
-4.35954e-08
-2.8753e-07
-1.13364e-08
-1.71479e-07
-5.55612e-08
-1.28444e-08
7.14561e-08
-4.89276e-08
2.14145e-07
-1.05806e-07
3.52242e-07
-1.81047e-07
4.8237e-07
-2.7223e-07
6.01863e-07
-3.7695e-07
7.08586e-07
-4.92829e-07
8.00918e-07
-6.17528e-07
8.77719e-07
-7.48756e-07
9.38282e-07
-8.84292e-07
9.82276e-07
-1.022e-06
1.0097e-06
-1.15982e-06
1.02081e-06
-1.29583e-06
1.01612e-06
-1.4282e-06
9.96302e-07
-1.55524e-06
9.62178e-07
-1.67539e-06
9.14689e-07
-1.7872e-06
8.54862e-07
-1.8894e-06
7.83788e-07
-1.98083e-06
7.02608e-07
-2.06046e-06
6.12501e-07
-2.12742e-06
5.14676e-07
-2.18098e-06
4.10368e-07
-2.22051e-06
3.00835e-07
-2.24558e-06
1.87363e-07
-2.25584e-06
7.12611e-08
-2.25113e-06
-4.61292e-08
-2.23142e-06
-1.63437e-07
-2.19683e-06
-2.79259e-07
-2.14765e-06
-3.9216e-07
-2.08433e-06
-5.00677e-07
-2.00747e-06
-6.03326e-07
-1.91788e-06
-6.98611e-07
-1.81652e-06
-7.85035e-07
-1.70456e-06
-8.61127e-07
-1.58333e-06
-9.25456e-07
-1.45435e-06
-9.76666e-07
-1.31933e-06
-1.01351e-06
-1.18012e-06
-1.03487e-06
-1.03875e-06
-1.03983e-06
-8.97372e-07
-1.02769e-06
-7.58245e-07
-9.98035e-07
-6.2372e-07
-9.50769e-07
-4.96205e-07
-8.86166e-07
-3.78131e-07
-8.04919e-07
-2.71923e-07
-7.0818e-07
-1.79969e-07
-5.97592e-07
-1.04597e-07
-4.75325e-07
-4.80554e-08
-3.44072e-07
-1.25028e-08
-2.07031e-07
-6.8064e-08
-1.39935e-08
8.54496e-08
-5.32755e-08
2.53427e-07
-1.15121e-07
4.14088e-07
-1.96804e-07
5.64053e-07
-2.95613e-07
7.00671e-07
-4.08864e-07
8.21838e-07
-5.33922e-07
9.25975e-07
-6.68209e-07
1.01201e-06
-8.09229e-07
1.0793e-06
-9.54577e-07
1.12762e-06
-1.10196e-06
1.15708e-06
-1.24919e-06
1.16805e-06
-1.39424e-06
1.16117e-06
-1.53518e-06
1.13725e-06
-1.67027e-06
1.09726e-06
-1.79787e-06
1.04229e-06
-1.91652e-06
9.73513e-07
-2.02489e-06
8.92162e-07
-2.12181e-06
7.99526e-07
-2.20624e-06
6.96928e-07
-2.27728e-06
5.85717e-07
-2.33418e-06
4.67268e-07
-2.37633e-06
3.4298e-07
-2.40324e-06
2.14275e-07
-2.41458e-06
8.2605e-08
-2.41016e-06
-5.05473e-08
-2.38994e-06
-1.83663e-07
-2.35401e-06
-3.15188e-07
-2.30264e-06
-4.43527e-07
-2.23627e-06
-5.67053e-07
-2.15549e-06
-6.84105e-07
-2.06109e-06
-7.93007e-07
-1.95405e-06
-8.92075e-07
-1.83554e-06
-9.79641e-07
-1.70692e-06
-1.05408e-06
-1.56975e-06
-1.11383e-06
-1.42581e-06
-1.15745e-06
-1.27705e-06
-1.18363e-06
-1.12559e-06
-1.19128e-06
-9.73737e-07
-1.17955e-06
-8.23917e-07
-1.14786e-06
-6.78681e-07
-1.096e-06
-5.40664e-07
-1.02418e-06
-4.12548e-07
-9.33035e-07
-2.97035e-07
-8.23693e-07
-1.96805e-07
-6.97822e-07
-1.14489e-07
-5.57641e-07
-5.26381e-08
-4.05923e-07
-1.37007e-08
-2.45969e-07
-8.17648e-08
-1.51641e-08
1.00614e-07
-5.77011e-08
2.95964e-07
-1.24599e-07
4.80986e-07
-2.12832e-07
6.52285e-07
-3.1939e-07
8.0723e-07
-4.41306e-07
9.43753e-07
-5.75674e-07
1.06034e-06
-7.19676e-07
1.15601e-06
-8.70596e-07
1.23022e-06
-1.02584e-06
1.28287e-06
-1.18296e-06
1.31419e-06
-1.33964e-06
1.32473e-06
-1.49373e-06
1.31525e-06
-1.64323e-06
1.28675e-06
-1.78632e-06
1.24035e-06
-1.92133e-06
1.1773e-06
-2.04675e-06
1.09894e-06
-2.16124e-06
1.00665e-06
-2.26359e-06
9.01883e-07
-2.35277e-06
7.86108e-07
-2.42787e-06
6.60816e-07
-2.48813e-06
5.27524e-07
-2.53292e-06
3.87768e-07
-2.56175e-06
2.43108e-07
-2.57428e-06
9.51308e-08
-2.57028e-06
-5.45397e-08
-2.5497e-06
-2.04242e-07
-2.51262e-06
-3.52271e-07
-2.45927e-06
-4.96875e-07
-2.39007e-06
-6.3626e-07
-2.30558e-06
-7.68591e-07
-2.20658e-06
-8.92003e-07
-2.09404e-06
-1.00462e-06
-1.96913e-06
-1.10456e-06
-1.83322e-06
-1.18998e-06
-1.68793e-06
-1.25912e-06
-1.53507e-06
-1.31031e-06
-1.37668e-06
-1.34202e-06
-1.21501e-06
-1.35296e-06
-1.05249e-06
-1.34206e-06
-8.9174e-07
-1.30861e-06
-7.35514e-07
-1.25223e-06
-5.86686e-07
-1.17301e-06
-4.48208e-07
-1.07151e-06
-3.23073e-07
-9.48827e-07
-2.14274e-07
-8.06621e-07
-1.24759e-07
-6.47155e-07
-5.73992e-08
-4.73283e-07
-1.49469e-08
-2.88421e-07
-9.67116e-08
-1.63667e-08
1.1698e-07
-6.22395e-08
3.41836e-07
-1.34307e-07
5.53053e-07
-2.29232e-07
7.4721e-07
-3.43697e-07
9.21694e-07
-4.74435e-07
1.07449e-06
-6.18266e-07
1.20417e-06
-7.72115e-07
1.30986e-06
-9.33046e-07
1.39115e-06
-1.09827e-06
1.4481e-06
-1.26517e-06
1.48109e-06
-1.4313e-06
1.49086e-06
-1.59441e-06
1.47836e-06
-1.75242e-06
1.44476e-06
-1.90343e-06
1.39137e-06
-2.04576e-06
1.31962e-06
-2.17785e-06
1.23103e-06
-2.29835e-06
1.12715e-06
-2.40605e-06
1.00959e-06
-2.49991e-06
8.79966e-07
-2.57902e-06
7.39926e-07
-2.64262e-06
5.9112e-07
-2.69007e-06
4.35222e-07
-2.72088e-06
2.73922e-07
-2.7347e-06
1.08942e-07
-2.73127e-06
-5.79617e-08
-2.71053e-06
-2.2499e-07
-2.6725e-06
-3.90292e-07
-2.61742e-06
-5.51963e-07
-2.54563e-06
-7.08044e-07
-2.4577e-06
-8.56523e-07
-2.35436e-06
-9.95345e-07
-2.23655e-06
-1.12242e-06
-2.10544e-06
-1.23567e-06
-1.9624e-06
-1.33302e-06
-1.80908e-06
-1.41244e-06
-1.64734e-06
-1.47204e-06
-1.4793e-06
-1.51006e-06
-1.30732e-06
-1.52494e-06
-1.13397e-06
-1.51541e-06
-9.62052e-07
-1.48052e-06
-7.94543e-07
-1.41974e-06
-6.34569e-07
-1.33299e-06
-4.8537e-07
-1.22071e-06
-3.5025e-07
-1.08395e-06
-2.32532e-07
-9.24338e-07
-1.3551e-07
-7.44178e-07
-6.23912e-08
-5.46402e-07
-1.62565e-08
-3.34556e-07
-1.12968e-07
-1.76106e-08
1.34591e-07
-6.69225e-08
3.91148e-07
-1.44306e-07
6.30437e-07
-2.46097e-07
8.49001e-07
-3.68651e-07
1.04425e-06
-5.08393e-07
1.21423e-06
-6.61849e-07
1.35763e-06
-8.25681e-07
1.47369e-06
-9.96721e-07
1.56219e-06
-1.17198e-06
1.62336e-06
-1.34868e-06
1.65779e-06
-1.52423e-06
1.66642e-06
-1.69628e-06
1.65041e-06
-1.86269e-06
1.61116e-06
-2.0215e-06
1.55018e-06
-2.17097e-06
1.4691e-06
-2.30957e-06
1.36963e-06
-2.43593e-06
1.2535e-06
-2.54883e-06
1.12249e-06
-2.64725e-06
9.78381e-07
-2.73027e-06
8.22954e-07
-2.79716e-06
6.58006e-07
-2.84727e-06
4.85337e-07
-2.88012e-06
3.06766e-07
-2.89532e-06
1.2414e-07
-2.89262e-06
-6.06607e-08
-2.8719e-06
-2.45705e-07
-2.83319e-06
-4.29005e-07
-2.77664e-06
-6.08509e-07
-2.70259e-06
-7.82096e-07
-2.61154e-06
-9.47579e-07
-2.50417e-06
-1.10271e-06
-2.38141e-06
-1.24519e-06
-2.24437e-06
-1.37271e-06
-2.09445e-06
-1.48294e-06
-1.93328e-06
-1.57361e-06
-1.76277e-06
-1.64255e-06
-1.58511e-06
-1.68772e-06
-1.40275e-06
-1.7073e-06
-1.21844e-06
-1.69973e-06
-1.03513e-06
-1.66383e-06
-8.56051e-07
-1.59882e-06
-6.84583e-07
-1.50445e-06
-5.24273e-07
-1.38102e-06
-3.78762e-07
-1.22946e-06
-2.5173e-07
-1.05137e-06
-1.46837e-07
-8.4907e-07
-6.76635e-08
-6.25576e-07
-1.76441e-08
-3.84575e-07
-1.30612e-07
-1.89042e-08
1.53495e-07
-7.17784e-08
4.44022e-07
-1.54651e-07
7.13309e-07
-2.63507e-07
9.57857e-07
-3.94359e-07
1.1751e-06
-5.43299e-07
1.36317e-06
-7.06546e-07
1.52088e-06
-8.80488e-07
1.64763e-06
-1.06171e-06
1.74342e-06
-1.24703e-06
1.80867e-06
-1.43348e-06
1.84424e-06
-1.61836e-06
1.8513e-06
-1.79922e-06
1.83127e-06
-1.97383e-06
1.78577e-06
-2.14022e-06
1.71656e-06
-2.29662e-06
1.6255e-06
-2.44148e-06
1.51449e-06
-2.57344e-06
1.38546e-06
-2.69132e-06
1.24037e-06
-2.7941e-06
1.08116e-06
-2.8809e-06
9.09752e-07
-2.95097e-06
7.28081e-07
-3.00371e-06
5.38073e-07
-3.03861e-06
3.41664e-07
-3.05528e-06
1.40814e-07
-3.05347e-06
-6.24778e-08
-3.03301e-06
-2.66163e-07
-2.99388e-06
-4.68127e-07
-2.93621e-06
-6.66179e-07
-2.86027e-06
-8.58042e-07
-2.76649e-06
-1.04136e-06
-2.65551e-06
-1.21368e-06
-2.52819e-06
-1.37251e-06
-2.38562e-06
-1.51528e-06
-2.22915e-06
-1.63941e-06
-2.0604e-06
-1.74236e-06
-1.88133e-06
-1.82163e-06
-1.69415e-06
-1.87489e-06
-1.50145e-06
-1.9e-06
-1.30608e-06
-1.8951e-06
-1.11121e-06
-1.8587e-06
-9.20276e-07
-1.78975e-06
-7.36963e-07
-1.68777e-06
-5.65135e-07
-1.55285e-06
-4.08793e-07
-1.3858e-06
-2.72005e-07
-1.18816e-06
-1.58833e-07
-9.62241e-07
-7.32633e-08
-7.11146e-07
-1.91235e-08
-4.38715e-07
-1.49736e-07
-2.02552e-08
1.7375e-07
-7.68336e-08
5.00601e-07
-1.65392e-07
8.01868e-07
-2.81538e-07
1.074e-06
-4.20911e-07
1.31447e-06
-5.79251e-07
1.52151e-06
-7.52451e-07
1.69408e-06
-9.36607e-07
1.83179e-06
-1.12805e-06
1.93486e-06
-1.32339e-06
2.00401e-06
-1.5195e-06
2.04035e-06
-1.71354e-06
2.04534e-06
-1.90297e-06
2.0207e-06
-2.0855e-06
1.96831e-06
-2.25914e-06
1.8902e-06
-2.42211e-06
1.78847e-06
-2.57288e-06
1.66526e-06
-2.71011e-06
1.52269e-06
-2.83265e-06
1.36291e-06
-2.93951e-06
1.18802e-06
-3.02985e-06
1.00009e-06
-3.10296e-06
8.01185e-07
-3.15822e-06
5.93342e-07
-3.19517e-06
3.78607e-07
-3.2134e-06
1.59043e-07
-3.21262e-06
-6.32509e-08
-3.19267e-06
-2.8612e-07
-3.15346e-06
-5.07336e-07
-3.09506e-06
-7.24581e-07
-3.01766e-06
-9.35434e-07
-2.92165e-06
-1.13737e-06
-2.80758e-06
-1.32776e-06
-2.67623e-06
-1.50386e-06
-2.52861e-06
-1.66289e-06
-2.36605e-06
-1.80198e-06
-2.19014e-06
-1.91827e-06
-2.00281e-06
-2.00896e-06
-1.80636e-06
-2.07135e-06
-1.60341e-06
-2.10295e-06
-1.39698e-06
-2.10153e-06
-1.19042e-06
-2.06526e-06
-9.87402e-07
-1.99277e-06
-7.91907e-07
-1.88326e-06
-6.08147e-07
-1.73661e-06
-4.4051e-07
-1.55344e-06
-2.93487e-07
-1.33518e-06
-1.71585e-07
-1.08414e-06
-7.92354e-08
-8.03495e-07
-2.07078e-08
-4.97242e-07
-1.70444e-07
-2.1671e-08
1.95421e-07
-8.21128e-08
5.61043e-07
-1.76576e-07
8.96331e-07
-3.00255e-07
1.19768e-06
-4.48387e-07
1.46261e-06
-6.1633e-07
1.68946e-06
-7.9963e-07
1.87738e-06
-9.94073e-07
2.02623e-06
-1.19573e-06
2.13652e-06
-1.40099e-06
2.20927e-06
-1.60656e-06
2.24592e-06
-1.80948e-06
2.24826e-06
-2.00712e-06
2.21834e-06
-2.19717e-06
2.15836e-06
-2.37761e-06
2.07064e-06
-2.54668e-06
1.95754e-06
-2.70287e-06
1.82145e-06
-2.84489e-06
1.66472e-06
-2.97165e-06
1.48967e-06
-3.08221e-06
1.29858e-06
-3.17577e-06
1.09365e-06
-3.25166e-06
8.77073e-07
-3.30931e-06
6.50992e-07
-3.34824e-06
4.17544e-07
-3.36808e-06
1.7888e-07
-3.36851e-06
-6.28193e-08
-3.34932e-06
-3.05309e-07
-3.31039e-06
-5.46265e-07
-3.25172e-06
-7.83257e-07
-3.17342e-06
-1.01374e-06
-3.07577e-06
-1.23502e-06
-2.95924e-06
-1.44429e-06
-2.8245e-06
-1.6386e-06
-2.6725e-06
-1.81489e-06
-2.50446e-06
-1.97002e-06
-2.32194e-06
-2.10079e-06
-2.12684e-06
-2.20406e-06
-1.92146e-06
-2.27673e-06
-1.70852e-06
-2.31589e-06
-1.49113e-06
-2.31892e-06
-1.27283e-06
-2.28356e-06
-1.05755e-06
-2.20805e-06
-8.49574e-07
-2.09124e-06
-6.53474e-07
-1.93271e-06
-4.74064e-07
-1.73285e-06
-3.16299e-07
-1.49295e-06
-1.85174e-07
-1.21527e-06
-8.56238e-08
-9.03046e-07
-2.24101e-08
-5.60456e-07
-1.92854e-07
-2.31589e-08
2.1858e-07
-8.7641e-08
6.25525e-07
-1.88248e-07
9.96938e-07
-3.19722e-07
1.32916e-06
-4.76859e-07
1.61974e-06
-6.54603e-07
1.8672e-06
-8.48123e-07
2.0709e-06
-1.05288e-06
2.23099e-06
-1.26467e-06
2.34831e-06
-1.47965e-06
2.42425e-06
-1.69437e-06
2.46064e-06
-1.90577e-06
2.45966e-06
-2.11114e-06
2.42371e-06
-2.30814e-06
2.35536e-06
-2.49476e-06
2.25726e-06
-2.66928e-06
2.13206e-06
-2.83026e-06
1.98242e-06
-2.97646e-06
1.81092e-06
-3.10685e-06
1.62007e-06
-3.22059e-06
1.41231e-06
-3.31693e-06
1.18999e-06
-3.39526e-06
9.55408e-07
-3.45507e-06
7.10796e-07
-3.49589e-06
4.5837e-07
-3.51736e-06
2.00347e-07
-3.51915e-06
-6.10281e-08
-3.50102e-06
-3.23445e-07
-3.46278e-06
-5.84503e-07
-3.40435e-06
-8.41681e-07
-3.32577e-06
-1.09232e-06
-3.2272e-06
-1.33359e-06
-3.10899e-06
-1.5625e-06
-2.97169e-06
-1.7759e-06
-2.81613e-06
-1.97045e-06
-2.64341e-06
-2.14273e-06
-2.45501e-06
-2.28919e-06
-2.25279e-06
-2.40628e-06
-2.03904e-06
-2.49048e-06
-1.81649e-06
-2.53843e-06
-1.58839e-06
-2.54702e-06
-1.35843e-06
-2.51351e-06
-1.1308e-06
-2.43569e-06
-9.10077e-07
-2.31196e-06
-7.01254e-07
-2.14153e-06
-5.09593e-07
-1.92451e-06
-3.40556e-07
-1.66198e-06
-1.99683e-07
-1.35614e-06
-9.24717e-08
-1.01026e-06
-2.42435e-08
-6.28684e-07
-2.17097e-07
-2.47271e-08
2.43308e-07
-9.34447e-08
6.94242e-07
-2.00457e-07
1.10395e-06
-3.40005e-07
1.4687e-06
-5.06398e-07
1.78614e-06
-6.94127e-07
2.05493e-06
-8.97953e-07
2.27472e-06
-1.11298e-06
2.44602e-06
-1.33473e-06
2.57006e-06
-1.55913e-06
2.64865e-06
-1.78257e-06
2.68408e-06
-2.00188e-06
2.67896e-06
-2.21431e-06
2.63614e-06
-2.41751e-06
2.55857e-06
-2.60952e-06
2.44926e-06
-2.78867e-06
2.31121e-06
-2.95359e-06
2.14735e-06
-3.10316e-06
1.96049e-06
-3.23645e-06
1.75336e-06
-3.35268e-06
1.52855e-06
-3.45124e-06
1.28854e-06
-3.53156e-06
1.03574e-06
-3.5932e-06
7.72435e-07
-3.63574e-06
5.00912e-07
-3.65882e-06
2.23426e-07
-3.66212e-06
-5.77356e-08
-3.64534e-06
-3.40225e-07
-3.60825e-06
-6.21591e-07
-3.55068e-06
-8.99248e-07
-3.47255e-06
-1.17044e-06
-3.37391e-06
-1.43223e-06
-3.25495e-06
-1.68146e-06
-3.11609e-06
-1.91476e-06
-2.95798e-06
-2.12856e-06
-2.7816e-06
-2.31911e-06
-2.58829e-06
-2.4825e-06
-2.37983e-06
-2.61474e-06
-2.15844e-06
-2.71187e-06
-1.9269e-06
-2.76998e-06
-1.68849e-06
-2.78543e-06
-1.44709e-06
-2.75491e-06
-1.20711e-06
-2.67567e-06
-9.73485e-07
-2.54559e-06
-7.516e-07
-2.36342e-06
-5.47219e-07
-2.12889e-06
-3.66367e-07
-1.84284e-06
-2.15191e-07
-1.50732e-06
-9.98232e-08
-1.12563e-06
-2.62216e-08
-7.02286e-07
-2.43319e-07
-2.63847e-08
2.69692e-07
-9.95539e-08
7.67411e-07
-2.13257e-07
1.21765e-06
-3.61175e-07
1.61662e-06
-5.37077e-07
1.96204e-06
-7.34953e-07
2.2528e-06
-9.49121e-07
2.48889e-06
-1.17431e-06
2.67121e-06
-1.40574e-06
2.80148e-06
-1.63911e-06
2.88202e-06
-1.87065e-06
2.91562e-06
-2.09712e-06
2.90543e-06
-2.31574e-06
2.85476e-06
-2.52419e-06
2.76702e-06
-2.72055e-06
2.64563e-06
-2.90328e-06
2.49394e-06
-3.0711e-06
2.31517e-06
-3.22303e-06
2.11242e-06
-3.35827e-06
1.88859e-06
-3.47616e-06
1.64644e-06
-3.57619e-06
1.38858e-06
-3.65793e-06
1.11747e-06
-3.72097e-06
8.35481e-07
-3.76498e-06
5.44915e-07
-3.7896e-06
2.4805e-07
-3.79452e-06
-5.28203e-08
-3.7794e-06
-3.55336e-07
-3.74397e-06
-6.57029e-07
-3.68794e-06
-9.55277e-07
-3.61111e-06
-1.24727e-06
-3.51339e-06
-1.52996e-06
-3.3948e-06
-1.80005e-06
-3.25556e-06
-2.054e-06
-3.09615e-06
-2.28797e-06
-2.91736e-06
-2.4979e-06
-2.72037e-06
-2.67949e-06
-2.5068e-06
-2.82832e-06
-2.27879e-06
-2.93987e-06
-2.03908e-06
-3.00969e-06
-1.791e-06
-3.0335e-06
-1.53857e-06
-3.00735e-06
-1.28642e-06
-2.92782e-06
-1.03981e-06
-2.79219e-06
-8.04593e-07
-2.59864e-06
-5.87054e-07
-2.34643e-06
-3.93839e-07
-2.03605e-06
-2.3178e-07
-1.66938e-06
-1.07724e-07
-1.24968e-06
-2.83588e-08
-7.81651e-07
-2.71678e-07
-2.81427e-08
2.97835e-07
-1.06005e-07
8.45273e-07
-2.26712e-07
1.33836e-06
-3.83315e-07
1.77322e-06
-5.68978e-07
2.1477e-06
-7.77136e-07
2.46096e-06
-1.00162e-06
2.71337e-06
-1.23676e-06
2.90635e-06
-1.47745e-06
3.04216e-06
-1.71916e-06
3.12373e-06
-1.95801e-06
3.15447e-06
-2.19066e-06
3.13808e-06
-2.41435e-06
3.07845e-06
-2.62683e-06
2.97949e-06
-2.82627e-06
2.84507e-06
-3.01126e-06
2.67893e-06
-3.1807e-06
2.48461e-06
-3.33374e-06
2.26546e-06
-3.46976e-06
2.0246e-06
-3.58826e-06
1.76495e-06
-3.68887e-06
1.48919e-06