/*--------------------------------*- C++ -*----------------------------------*\
  =========                 |
  \\      /  F ield         | OpenFOAM: The Open Source CFD Toolbox
   \\    /   O peration     | Website:  https://openfoam.org
    \\  /    A nd           | Version:  7
     \\/     M anipulation  |
\*---------------------------------------------------------------------------*/
FoamFile
{
    version     2.0;
    format      ascii;
    class       surfaceScalarField;
    location    "0.008";
    object      phi;
}
// * * * * * * * * * * * * * * * * * * * * * * * * * * * * * * * * * * * * * //

dimensions      [0 3 -1 0 0 0 0];

internalField   nonuniform List<scalar> 
4900
(
6.64991e-10
-6.65063e-10
4.64552e-10
2.00443e-10
-1.06246e-09
1.527e-09
-3.8741e-09
2.81165e-09
-7.75532e-09
3.88122e-09
-1.24535e-08
4.6982e-09
-1.77287e-08
5.27519e-09
-2.33715e-08
5.64278e-09
-2.92066e-08
5.83515e-09
-3.50911e-08
5.88448e-09
-4.09101e-08
5.81902e-09
-4.65725e-08
5.66245e-09
-5.20065e-08
5.43398e-09
-5.71553e-08
5.14879e-09
-6.19739e-08
4.8186e-09
-6.64263e-08
4.45239e-09
-7.04832e-08
4.05692e-09
-7.41206e-08
3.63741e-09
-7.73185e-08
3.19791e-09
-8.00602e-08
2.74169e-09
-8.23318e-08
2.27157e-09
-8.41218e-08
1.79002e-09
-8.54212e-08
1.29936e-09
-8.6223e-08
8.01853e-10
-8.65227e-08
2.99692e-10
-8.63178e-08
-2.04914e-10
-8.56081e-08
-7.09721e-10
-8.43957e-08
-1.21244e-09
-8.26849e-08
-1.71073e-09
-8.04828e-08
-2.20215e-09
-7.77987e-08
-2.68408e-09
-7.4645e-08
-3.15369e-09
-7.10373e-08
-3.60777e-09
-6.69947e-08
-4.04256e-09
-6.25412e-08
-4.45346e-09
-5.77066e-08
-4.83469e-09
-5.25277e-08
-5.17886e-09
-4.70513e-08
-5.47638e-09
-4.13364e-08
-5.71494e-09
-3.54576e-08
-5.87882e-09
-2.95092e-08
-5.94841e-09
-2.36094e-08
-5.89978e-09
-1.79047e-08
-5.70467e-09
-1.25736e-08
-5.3311e-09
-7.82822e-09
-4.74539e-09
-3.91056e-09
-3.91767e-09
-1.07432e-09
-2.83626e-09
4.65442e-10
-1.53976e-09
6.69059e-10
-2.03612e-10
6.69057e-10
-1.92191e-10
-4.72868e-10
-2.59512e-09
2.60336e-09
-7.85866e-09
6.79055e-09
-1.58951e-08
1.08481e-08
-2.63381e-08
1.43242e-08
-3.87026e-08
1.70628e-08
-5.24825e-08
1.90551e-08
-6.72031e-08
2.03634e-08
-8.24453e-08
2.10774e-08
-9.78521e-08
2.12913e-08
-1.13127e-07
2.1094e-08
-1.28028e-07
2.05635e-08
-1.4236e-07
1.97655e-08
-1.55965e-07
1.87536e-08
-1.68716e-07
1.75702e-08
-1.80512e-07
1.62486e-08
-1.9127e-07
1.48145e-08
-2.00921e-07
1.3288e-08
-2.09408e-07
1.1685e-08
-2.16684e-07
1.00184e-08
-2.22712e-07
8.29932e-09
-2.27459e-07
6.53741e-09
-2.30902e-07
4.74167e-09
-2.33021e-07
2.92064e-09
-2.33804e-07
1.08269e-09
-2.33245e-07
-7.63867e-10
-2.31344e-07
-2.61066e-09
-2.28107e-07
-4.44912e-09
-2.23547e-07
-6.27041e-09
-2.17684e-07
-8.06528e-09
-2.10545e-07
-9.82382e-09
-2.02163e-07
-1.15351e-08
-1.92584e-07
-1.31868e-08
-1.81863e-07
-1.47642e-08
-1.70066e-07
-1.62497e-08
-1.5728e-07
-1.76213e-08
-1.43607e-07
-1.88512e-08
-1.2918e-07
-1.99041e-08
-1.14159e-07
-2.07357e-08
-9.8747e-08
-2.12907e-08
-8.31933e-08
-2.15021e-08
-6.78019e-08
-2.12911e-08
-5.29376e-08
-2.0569e-08
-3.90265e-08
-1.92422e-08
-2.65494e-08
-1.72226e-08
-1.60168e-08
-1.44503e-08
-7.91589e-09
-1.09372e-08
-2.61283e-09
-6.84279e-09
-1.93032e-10
-2.62342e-09
4.76062e-10
-1.49969e-09
1.02681e-09
-6.75313e-09
7.85681e-09
-1.59772e-08
1.60146e-08
-2.89555e-08
2.38265e-08
-4.51991e-08
3.05678e-08
-6.40822e-08
3.59458e-08
-8.49401e-08
3.9913e-08
-1.07132e-07
4.25557e-08
-1.30077e-07
4.40222e-08
-1.53267e-07
4.4481e-08
-1.76271e-07
4.40978e-08
-1.9873e-07
4.30228e-08
-2.2035e-07
4.13859e-08
-2.40892e-07
3.92951e-08
-2.60159e-07
3.68377e-08
-2.77994e-07
3.4083e-08
-2.94265e-07
3.10858e-08
-3.08866e-07
2.78892e-08
-3.21709e-07
2.45277e-08
-3.3272e-07
2.10297e-08
-3.4184e-07
1.74192e-08
-3.4902e-07
1.37174e-08
-3.54222e-07
9.94391e-09
-3.57419e-07
6.11704e-09
-3.58591e-07
2.25477e-09
-3.57729e-07
-1.62515e-09
-3.54835e-07
-5.50482e-09
-3.49918e-07
-9.36601e-09
-3.42999e-07
-1.31899e-08
-3.34108e-07
-1.69565e-08
-3.23287e-07
-2.06446e-08
-3.10591e-07
-2.42307e-08
-2.9609e-07
-2.76878e-08
-2.7987e-07
-3.09844e-08
-2.62037e-07
-3.40826e-08
-2.42723e-07
-3.69353e-08
-2.2209e-07
-3.9484e-08
-2.00339e-07
-4.16553e-08
-1.77717e-07
-4.33581e-08
-1.54526e-07
-4.44812e-08
-1.31136e-07
-4.48925e-08
-1.07987e-07
-4.44402e-08
-8.55969e-08
-4.29587e-08
-6.45579e-08
-4.02811e-08
-4.55183e-08
-3.62622e-08
-2.91483e-08
-3.08202e-08
-1.60766e-08
-2.40088e-08
-6.79227e-09
-1.61271e-08
-1.50804e-09
-7.90761e-09
-1.03195e-09
-2.77889e-09
3.8057e-09
-1.08395e-08
1.59175e-08
-2.38881e-08
2.90632e-08
-4.14479e-08
4.13863e-08
-6.2869e-08
5.19889e-08
-8.74016e-08
6.04783e-08
-1.14267e-07
6.67785e-08
-1.42713e-07
7.10018e-08
-1.72049e-07
7.33576e-08
-2.01661e-07
7.40938e-08
-2.31025e-07
7.3461e-08
-2.59694e-07
7.1692e-08
-2.87299e-07
6.89913e-08
-3.13536e-07
6.55318e-08
-3.38154e-07
6.14555e-08
-3.60947e-07
5.68767e-08
-3.81748e-07
5.18865e-08
-4.00416e-07
4.65576e-08
-4.16838e-07
4.09488e-08
-4.30916e-07
3.51085e-08
-4.42575e-07
2.90779e-08
-4.51751e-07
2.28934e-08
-4.58396e-07
1.65883e-08
-4.62472e-07
1.01938e-08
-4.63958e-07
3.74049e-09
-4.62841e-07
-2.74173e-09
-4.59124e-07
-9.22266e-09
-4.52818e-07
-1.56715e-08
-4.43952e-07
-2.20564e-08
-4.32564e-07
-2.83438e-08
-4.18712e-07
-3.44973e-08
-4.02465e-07
-4.0477e-08
-3.83916e-07
-4.62371e-08
-3.63176e-07
-5.17243e-08
-3.40385e-07
-5.68741e-08
-3.15712e-07
-6.1608e-08
-2.89368e-07
-6.58284e-08
-2.61608e-07
-6.94149e-08
-2.32747e-07
-7.22197e-08
-2.03163e-07
-7.40649e-08
-1.73313e-07
-7.47422e-08
-1.43737e-07
-7.40168e-08
-1.15057e-07
-7.16381e-08
-8.79774e-08
-6.73609e-08
-6.3259e-08
-6.09806e-08
-4.1687e-08
-5.23922e-08
-2.40147e-08
-4.1681e-08
-1.08919e-08
-2.925e-08
-2.79114e-09
-1.60083e-08
-3.82309e-09
-3.87587e-09
7.68157e-09
-1.44699e-08
2.65115e-08
-3.10021e-08
4.55953e-08
-5.26957e-08
6.30799e-08
-7.87112e-08
7.80045e-08
-1.08169e-07
8.99365e-08
-1.40192e-07
9.88008e-08
-1.73939e-07
1.04749e-07
-2.08641e-07
1.0806e-07
-2.43612e-07
1.09064e-07
-2.78255e-07
1.08104e-07
-3.12064e-07
1.05501e-07
-3.44612e-07
1.0154e-07
-3.75546e-07
9.64658e-08
-4.04573e-07
9.04824e-08
-4.31451e-07
8.37546e-08
-4.5598e-07
7.64157e-08
-4.77995e-07
6.8573e-08
-4.9736e-07
6.03135e-08
-5.13961e-07
5.17098e-08
-5.27707e-07
4.28234e-08
-5.38522e-07
3.37089e-08
-5.4635e-07
2.44161e-08
-5.51148e-07
1.49917e-08
-5.52889e-07
5.48095e-09
-5.51559e-07
-4.07166e-09
-5.4716e-07
-1.36214e-08
-5.39709e-07
-2.31226e-08
-5.29237e-07
-3.25279e-08
-5.15794e-07
-4.17875e-08
-4.99444e-07
-5.08473e-08
-4.80273e-07
-5.96477e-08
-4.58389e-07
-6.81206e-08
-4.33927e-07
-7.61865e-08
-4.07051e-07
-8.37504e-08
-3.77962e-07
-9.06965e-08
-3.46908e-07
-9.68829e-08
-3.14187e-07
-1.02135e-07
-2.80164e-07
-1.06243e-07
-2.45276e-07
-1.08954e-07
-2.10042e-07
-1.09976e-07
-1.75071e-07
-1.08987e-07
-1.41065e-07
-1.05645e-07
-1.08805e-07
-9.96209e-08
-7.91404e-08
-9.06448e-08
-5.29579e-08
-7.85746e-08
-3.11403e-08
-6.34986e-08
-1.45265e-08
-4.58638e-08
-3.88877e-09
-2.6646e-08
-7.71189e-09
-4.77061e-09
1.24522e-08
-1.75456e-08
3.92865e-08
-3.71407e-08
6.51904e-08
-6.24902e-08
8.84295e-08
-9.25573e-08
1.08072e-07
-1.26326e-07
1.23705e-07
-1.6282e-07
1.35295e-07
-2.01123e-07
1.43052e-07
-2.40398e-07
1.47336e-07
-2.79904e-07
1.4857e-07
-3.18992e-07
1.47192e-07
-3.5711e-07
1.43618e-07
-3.93789e-07
1.38219e-07
-4.28638e-07
1.31316e-07
-4.61334e-07
1.23178e-07
-4.91605e-07
1.14026e-07
-5.19229e-07
1.04039e-07
-5.44019e-07
9.33634e-08
-5.65823e-07
8.21171e-08
-5.84513e-07
7.03996e-08
-5.99985e-07
5.82959e-08
-6.12157e-07
4.58808e-08
-6.20964e-07
3.32227e-08
-6.26358e-07
2.03858e-08
-6.28309e-07
7.43194e-09
-6.26802e-07
-5.57812e-09
-6.2184e-07
-1.85833e-08
-6.13442e-07
-3.15213e-08
-6.01642e-07
-4.43276e-08
-5.86496e-07
-5.69337e-08
-5.68077e-07
-6.92658e-08
-5.46483e-07
-8.12421e-08
-5.21834e-07
-9.27693e-08
-4.94282e-07
-1.03739e-07
-4.64011e-07
-1.14022e-07
-4.31247e-07
-1.23461e-07
-3.96265e-07
-1.31865e-07
-3.59397e-07
-1.39003e-07
-3.21045e-07
-1.44594e-07
-2.8169e-07
-1.48309e-07
-2.41897e-07
-1.49769e-07
-2.0233e-07
-1.48554e-07
-1.63746e-07
-1.44229e-07
-1.26995e-07
-1.36372e-07
-9.30046e-08
-1.24635e-07
-6.27593e-08
-1.0882e-07
-3.72789e-08
-8.8979e-08
-1.75997e-08
-6.5543e-08
-4.78171e-09
-3.94639e-08
-1.24936e-08
-5.48852e-09
1.79407e-08
-2.0102e-08
5.38999e-08
-4.23447e-08
8.74331e-08
-7.08974e-08
1.16982e-07
-1.04534e-07
1.41708e-07
-1.421e-07
1.61272e-07
-1.82519e-07
1.75714e-07
-2.248e-07
1.85333e-07
-2.68047e-07
1.90582e-07
-3.11467e-07
1.91991e-07
-3.54373e-07
1.90098e-07
-3.96174e-07
1.85419e-07
-4.3637e-07
1.78415e-07
-4.74544e-07
1.69489e-07
-5.10345e-07
1.58979e-07
-5.43483e-07
1.47164e-07
-5.73715e-07
1.34272e-07
-6.00842e-07
1.2049e-07
-6.24696e-07
1.05972e-07
-6.45141e-07
9.08443e-08
-6.62064e-07
7.52186e-08
-6.75375e-07
5.91915e-08
-6.85004e-07
4.28516e-08
-6.909e-07
2.62819e-08
-6.9303e-07
9.56205e-09
-6.91378e-07
-7.22938e-09
-6.85948e-07
-2.40138e-08
-6.76758e-07
-4.0711e-08
-6.63848e-07
-5.72376e-08
-6.47277e-07
-7.35053e-08
-6.27124e-07
-8.94188e-08
-6.03494e-07
-1.04872e-07
-5.76519e-07
-1.19744e-07
-5.46361e-07
-1.33896e-07
-5.13222e-07
-1.47161e-07
-4.77345e-07
-1.59338e-07
-4.39026e-07
-1.70184e-07
-3.98624e-07
-1.79405e-07
-3.56568e-07
-1.86651e-07
-3.13371e-07
-1.91506e-07
-2.69638e-07
-1.93501e-07
-2.26075e-07
-1.92117e-07
-1.83491e-07
-1.86813e-07
-1.42794e-07
-1.77068e-07
-1.04991e-07
-1.62439e-07
-7.11656e-08
-1.42645e-07
-4.24769e-08
-1.17668e-07
-2.01498e-08
-8.78702e-08
-5.49643e-09
-5.41173e-08
-1.799e-08
-6.06894e-09
2.40096e-08
-2.22327e-08
7.00637e-08
-4.67644e-08
1.11965e-07
-7.81321e-08
1.4835e-07
-1.14937e-07
1.78512e-07
-1.55891e-07
2.02226e-07
-1.99816e-07
2.19639e-07
-2.45644e-07
2.31161e-07
-2.92421e-07
2.37359e-07
-3.39308e-07
2.38878e-07
-3.85579e-07
2.36369e-07
-4.30614e-07
2.30453e-07
-4.73886e-07
2.21688e-07
-5.14956e-07
2.10558e-07
-5.53453e-07
1.97477e-07
-5.89073e-07
1.82783e-07
-6.21559e-07
1.66758e-07
-6.50701e-07
1.49631e-07
-6.7632e-07
1.31591e-07
-6.98274e-07
1.12798e-07
-7.16444e-07
9.33879e-08
-7.30734e-07
7.34815e-08
-7.41071e-07
5.31887e-08
-7.47401e-07
3.26123e-08
-7.4969e-07
1.1851e-08
-7.47921e-07
-8.99846e-09
-7.42096e-07
-2.98389e-08
-7.32236e-07
-5.05712e-08
-7.18381e-07
-7.10925e-08
-7.00592e-07
-9.12936e-08
-6.78955e-07
-1.11056e-07
-6.53579e-07
-1.30249e-07
-6.24601e-07
-1.48722e-07
-5.92196e-07
-1.66302e-07
-5.56573e-07
-1.82784e-07
-5.1799e-07
-1.9792e-07
-4.76761e-07
-2.11413e-07
-4.33262e-07
-2.22904e-07
-3.87948e-07
-2.31965e-07
-3.41357e-07
-2.38097e-07
-2.94128e-07
-2.4073e-07
-2.47005e-07
-2.3924e-07
-2.00845e-07
-2.32973e-07
-1.56618e-07
-2.21295e-07
-1.15407e-07
-2.0365e-07
-7.84008e-08
-1.79651e-07
-4.68904e-08
-1.49178e-07
-2.22737e-08
-1.12487e-07
-6.07334e-09
-7.03176e-08
-2.40633e-08
-6.55162e-09
3.05612e-08
-2.40483e-08
8.75604e-08
-5.05912e-08
1.38508e-07
-8.44736e-08
1.82232e-07
-1.24142e-07
2.1818e-07
-1.68181e-07
2.46266e-07
-2.15312e-07
2.6677e-07
-2.64389e-07
2.80237e-07
-3.14396e-07
2.87366e-07
-3.64448e-07
2.8893e-07
-4.13784e-07
2.85705e-07
-4.61752e-07
2.78421e-07
-5.07804e-07
2.6774e-07
-5.51481e-07
2.54235e-07
-5.92399e-07
2.38395e-07
-6.30239e-07
2.20624e-07
-6.64736e-07
2.01255e-07
-6.9567e-07
1.80565e-07
-7.22859e-07
1.5878e-07
-7.46152e-07
1.36091e-07
-7.65427e-07
1.12663e-07
-7.80586e-07
8.86409e-08
-7.91554e-07
6.41563e-08
-7.98274e-07
3.93326e-08
-8.00711e-07
1.42877e-08
-7.98846e-07
-1.08626e-08
-7.92683e-07
-3.60024e-08
-7.82241e-07
-6.10134e-08
-7.67561e-07
-8.57724e-08
-7.48706e-07
-1.10149e-07
-7.25762e-07
-1.34e-07
-6.98842e-07
-1.57168e-07
-6.68089e-07
-1.79475e-07
-6.33681e-07
-2.0071e-07
-5.95837e-07
-2.20628e-07
-5.54825e-07
-2.38932e-07
-5.10971e-07
-2.55268e-07
-4.64667e-07
-2.69208e-07
-4.16388e-07
-2.80245e-07
-3.66697e-07
-2.87788e-07
-3.16265e-07
-2.91163e-07
-2.65874e-07
-2.89631e-07
-2.16429e-07
-2.82418e-07
-1.68964e-07
-2.6876e-07
-1.24641e-07
-2.47973e-07
-8.47524e-08
-2.1954e-07
-5.07164e-08
-1.83214e-07
-2.40846e-08
-1.39119e-07
-6.5531e-09
-8.78491e-08
-3.06164e-08
-6.97209e-09
3.75333e-08
-2.56562e-08
1.06245e-07
-5.40218e-08
1.66873e-07
-9.02149e-08
2.18425e-07
-1.32544e-07
2.60509e-07
-1.79474e-07
2.93196e-07
-2.29625e-07
3.16922e-07
-2.81771e-07
3.32382e-07
-3.34833e-07
3.40428e-07
-3.87877e-07
3.41975e-07
-4.40103e-07
3.3793e-07
-4.90831e-07
3.29149e-07
-5.39491e-07
3.164e-07
-5.85606e-07
3.0035e-07
-6.28779e-07
2.81568e-07
-6.68681e-07
2.60526e-07
-7.0504e-07
2.37614e-07
-7.3763e-07
2.13155e-07
-7.66264e-07
1.87414e-07
-7.9079e-07
1.60617e-07
-8.11083e-07
1.32956e-07
-8.27043e-07
1.04601e-07
-8.38594e-07
7.57072e-08
-8.45679e-07
4.64173e-08
-8.4826e-07
1.6869e-08
-8.4632e-07
-1.28028e-08
-8.39859e-07
-4.24636e-08
-8.28897e-07
-7.19755e-08
-8.13474e-07
-1.01195e-07
-7.93653e-07
-1.2997e-07
-7.69519e-07
-1.58133e-07
-7.41188e-07
-1.855e-07
-7.08803e-07
-2.1186e-07
-6.72546e-07
-2.36967e-07
-6.32641e-07
-2.60532e-07
-5.89364e-07
-2.82209e-07
-5.43051e-07
-3.01581e-07
-4.94109e-07
-3.18149e-07
-4.43031e-07
-3.31323e-07
-3.90405e-07
-3.40413e-07
-3.36933e-07
-3.44635e-07
-2.83437e-07
-3.43127e-07
-2.30875e-07
-3.3498e-07
-1.80347e-07
-3.19288e-07
-1.33098e-07
-2.95222e-07
-9.05203e-08
-2.62118e-07
-5.41556e-08
-2.19579e-07
-2.56925e-08
-1.67582e-07
-6.9719e-09
-1.0657e-07
-3.75884e-08
-7.36047e-09
4.48938e-08
-2.71535e-08
1.26038e-07
-5.72391e-08
1.96959e-07
-9.56355e-08
2.56822e-07
-1.40524e-07
3.05398e-07
-1.90254e-07
3.42926e-07
-2.43346e-07
3.70013e-07
-2.9849e-07
3.87526e-07
-3.54541e-07
3.9648e-07
-4.10514e-07
3.97947e-07
-4.65566e-07
3.92983e-07
-5.18989e-07
3.82572e-07
-5.70187e-07
3.67599e-07
-6.18669e-07
3.48832e-07
-6.64024e-07
3.26923e-07
-7.05915e-07
3.02417e-07
-7.44064e-07
2.75764e-07
-7.78242e-07
2.47333e-07
-8.08261e-07
2.17433e-07
-8.33965e-07
1.86322e-07
-8.55231e-07
1.54222e-07
-8.71959e-07
1.21329e-07
-8.84071e-07
8.78191e-08
-8.9151e-07
5.38567e-08
-8.9424e-07
1.95983e-08
-8.9224e-07
-1.48028e-08
-8.8551e-07
-4.91935e-08
-8.74068e-07
-8.3417e-08
-8.57954e-07
-1.1731e-07
-8.37226e-07
-1.50697e-07
-8.11971e-07
-1.83388e-07
-7.82301e-07
-2.15171e-07
-7.48359e-07
-2.45801e-07
-7.1033e-07
-2.74996e-07
-6.6844e-07
-3.02422e-07
-6.22971e-07
-3.27678e-07
-5.74267e-07
-3.50285e-07
-5.2275e-07
-3.69667e-07
-4.6893e-07
-3.85143e-07
-4.13422e-07
-3.95921e-07
-3.56959e-07
-4.01097e-07
-3.00411e-07
-3.99676e-07
-2.44789e-07
-3.90601e-07
-1.91263e-07
-3.72813e-07
-1.41165e-07
-3.4532e-07
-9.59896e-08
-3.07293e-07
-5.73946e-08
-2.58174e-07
-2.71957e-08
-1.97781e-07
-7.36031e-09
-1.26405e-07
-4.49486e-08
-7.74154e-09
5.26354e-08
-2.86233e-08
1.46919e-07
-6.04054e-08
2.28741e-07
-1.00987e-07
2.97403e-07
-1.48428e-07
3.52839e-07
-2.00965e-07
3.95462e-07
-2.57016e-07
4.26064e-07
-3.15185e-07
4.45696e-07
-3.74258e-07
4.55553e-07
-4.33191e-07
4.5688e-07
-4.91099e-07
4.50891e-07
-5.47239e-07
4.38712e-07
-6.00993e-07
4.21352e-07
-6.51849e-07
3.99688e-07
-6.99388e-07
3.74462e-07
-7.43264e-07
3.46293e-07
-7.83195e-07
3.15694e-07
-8.18949e-07
2.83087e-07
-8.50339e-07
2.48822e-07
-8.77209e-07
2.13192e-07
-8.99437e-07
1.7645e-07
-9.16925e-07
1.38816e-07
-9.29595e-07
1.00489e-07
-9.37392e-07
6.16536e-08
-9.40278e-07
2.2484e-08
-9.38232e-07
-1.68483e-08
-9.31253e-07
-5.61726e-08
-9.19356e-07
-9.53138e-08
-9.02577e-07
-1.34089e-07
-8.80973e-07
-1.72301e-07
-8.54624e-07
-2.09737e-07
-8.23641e-07
-2.46154e-07
-7.88166e-07
-2.81276e-07
-7.48381e-07
-3.14782e-07
-7.04514e-07
-3.46289e-07
-6.5685e-07
-3.75342e-07
-6.05743e-07
-4.01392e-07
-5.51627e-07
-4.23783e-07
-4.95031e-07
-4.41739e-07
-4.36599e-07
-4.54354e-07
-3.771e-07
-4.60596e-07
-3.17451e-07
-4.59325e-07
-2.58725e-07
-4.49327e-07
-2.02167e-07
-4.29371e-07
-1.49198e-07
-3.98289e-07
-1.01417e-07
-3.55074e-07
-6.05986e-08
-2.98992e-07
-2.8679e-08
-2.297e-07
-7.74339e-09
-1.47341e-07
-5.2692e-08
-8.1354e-09
6.07708e-08
-3.01355e-08
1.68919e-07
-6.36599e-08
2.62266e-07
-1.0649e-07
3.40233e-07
-1.56564e-07
4.02913e-07
-2.12003e-07
4.50901e-07
-2.7112e-07
4.85182e-07
-3.3243e-07
5.07005e-07
-3.9464e-07
5.17763e-07
-4.56647e-07
5.18887e-07
-5.17518e-07
5.11761e-07
-5.76473e-07
4.97667e-07
-6.32867e-07
4.77747e-07
-6.86173e-07
4.52993e-07
-7.35956e-07
4.24246e-07
-7.81867e-07
3.92204e-07
-8.23618e-07
3.57446e-07
-8.60979e-07
3.20448e-07
-8.93762e-07
2.81605e-07
-9.21817e-07
2.41247e-07
-9.45023e-07
1.99656e-07
-9.63283e-07
1.57077e-07
-9.76524e-07
1.1373e-07
-9.84691e-07
6.98203e-08
-9.87746e-07
2.5539e-08
-9.85668e-07
-1.89262e-08
-9.78452e-07
-6.33879e-08
-9.66112e-07
-1.07654e-07
-9.48679e-07
-1.51523e-07
-9.26203e-07
-1.94777e-07
-8.98761e-07
-2.37178e-07
-8.66458e-07
-2.78457e-07
-8.29431e-07
-3.18303e-07
-7.87858e-07
-3.56354e-07
-7.41968e-07
-3.92179e-07
-6.9205e-07
-4.25261e-07
-6.38462e-07
-4.54979e-07
-5.81653e-07
-4.80592e-07
-5.22173e-07
-5.01219e-07
-4.60695e-07
-5.15832e-07
-3.98029e-07
-5.23262e-07
-3.35144e-07
-5.2221e-07
-2.7318e-07
-5.11291e-07
-2.13463e-07
-4.89088e-07
-1.5751e-07
-4.54243e-07
-1.07028e-07
-4.05555e-07
-6.39093e-08
-3.42111e-07
-3.02133e-08
-2.63396e-07
-8.14149e-09
-1.69412e-07
-6.08335e-08
-8.55828e-09
6.93291e-08
-3.17485e-08
1.9211e-07
-6.7121e-08
2.97638e-07
-1.12333e-07
3.85445e-07
-1.65198e-07
4.55778e-07
-2.23714e-07
5.09417e-07
-2.86085e-07
5.47553e-07
-3.50726e-07
5.71646e-07
-4.16264e-07
5.83302e-07
-4.81529e-07
5.84152e-07
-5.45535e-07
5.75767e-07
-6.07463e-07
5.59595e-07
-6.66641e-07
5.36924e-07
-7.22519e-07
5.08872e-07
-7.74654e-07
4.76381e-07
-8.22689e-07
4.40238e-07
-8.66336e-07
4.01093e-07
-9.05365e-07
3.59477e-07
-9.39593e-07
3.15833e-07
-9.68873e-07
2.70527e-07
-9.93089e-07
2.23871e-07
-1.01215e-06
1.76137e-07
-1.02598e-06
1.27565e-07
-1.03454e-06
7.83761e-08
-1.03778e-06
2.87792e-08
-1.03568e-06
-2.10236e-08
-1.02824e-06
-7.083e-08
-1.01546e-06
-1.20433e-07
-9.97371e-07
-1.69613e-07
-9.74015e-07
-2.18133e-07
-9.4546e-07
-2.65733e-07
-9.11804e-07
-3.12113e-07
-8.73178e-07
-3.5693e-07
-8.29753e-07
-3.99779e-07
-7.81756e-07
-4.40176e-07
-7.29476e-07
-4.77541e-07
-6.7328e-07
-5.11176e-07
-6.13628e-07
-5.40244e-07
-5.51093e-07
-5.63754e-07
-4.86379e-07
-5.80546e-07
-4.20343e-07
-5.89298e-07
-3.5401e-07
-5.88543e-07
-2.88594e-07
-5.76707e-07
-2.25509e-07
-5.52173e-07
-1.66375e-07
-5.13377e-07
-1.13016e-07
-4.58915e-07
-6.74478e-08
-3.87679e-07
-3.18579e-08
-2.98986e-07
-8.57109e-09
-1.92699e-07
-6.94047e-08
-9.02345e-09
7.83525e-08
-3.35111e-08
2.16597e-07
-7.08899e-08
3.35017e-07
-1.18682e-07
4.33238e-07
-1.74565e-07
5.1166e-07
-2.36405e-07
5.71258e-07
-3.02287e-07
6.13434e-07
-3.70519e-07
6.39879e-07
-4.39641e-07
6.52424e-07
-5.08408e-07
6.52919e-07
-5.75776e-07
6.43135e-07
-6.40885e-07
6.24704e-07
-7.03031e-07
5.9907e-07
-7.61645e-07
5.67486e-07
-8.16273e-07
5.31008e-07
-8.66551e-07
4.90516e-07
-9.12193e-07
4.46735e-07
-9.52973e-07
4.00257e-07
-9.88713e-07
3.51573e-07
-1.01927e-06
3.01087e-07
-1.04454e-06
2.49142e-07
-1.06444e-06
1.96034e-07
-1.0789e-06
1.42022e-07
-1.08787e-06
8.73447e-08
-1.09131e-06
3.22234e-08
-1.08921e-06
-2.31266e-08
-1.08155e-06
-7.84908e-08
-1.06833e-06
-1.33649e-07
-1.04958e-06
-1.88366e-07
-1.02532e-06
-2.42388e-07
-9.95624e-07
-2.95431e-07
-9.60569e-07
-3.47169e-07
-9.20277e-07
-3.97222e-07
-8.74913e-07
-4.45143e-07
-8.24696e-07
-4.90392e-07
-7.69916e-07
-5.32321e-07
-7.10944e-07
-5.70148e-07
-6.48254e-07
-6.02934e-07
-5.82442e-07
-6.29566e-07
-5.14247e-07
-6.48741e-07
-4.44574e-07
-6.58971e-07
-3.74514e-07
-6.58604e-07
-3.0536e-07
-6.45861e-07
-2.38623e-07
-6.18909e-07
-1.76037e-07
-5.75962e-07
-1.19552e-07
-5.154e-07
-7.13184e-08
-4.35912e-07
-3.3663e-08
-3.36642e-07
-9.04576e-09
-2.17317e-07
-7.84504e-08
-9.54219e-09
8.78947e-08
-3.54656e-08
2.42521e-07
-7.50555e-08
3.74607e-07
-1.25683e-07
4.83865e-07
-1.84873e-07
5.70851e-07
-2.5035e-07
6.36734e-07
-3.20065e-07
6.83148e-07
-3.92211e-07
7.12025e-07
-4.65229e-07
7.25442e-07
-5.37793e-07
7.25482e-07
-6.08797e-07
7.1414e-07
-6.77335e-07
6.93241e-07
-7.42669e-07
6.64404e-07
-8.0421e-07
6.29028e-07
-8.61494e-07
5.88292e-07
-9.14154e-07
5.43176e-07
-9.61906e-07
4.94487e-07
-1.00453e-06
4.42881e-07
-1.04186e-06
3.889e-07
-1.07376e-06
3.32988e-07
-1.10013e-06
2.75518e-07
-1.12091e-06
2.16807e-07
-1.13602e-06
1.57135e-07
-1.14543e-06
9.67526e-08
-1.1491e-06
3.58927e-08
-1.147e-06
-2.52199e-08
-1.13913e-06
-8.6361e-08
-1.12548e-06
-1.473e-07
-1.10606e-06
-2.0779e-07
-1.08089e-06
-2.6756e-07
-1.05001e-06
-3.26307e-07
-1.0135e-06
-3.83676e-07
-9.71472e-07
-4.39254e-07
-9.24068e-07
-4.92547e-07
-8.71504e-07
-5.42956e-07
-8.14063e-07
-5.89762e-07
-7.52121e-07
-6.3209e-07
-6.86163e-07
-6.68892e-07
-6.16811e-07
-6.98918e-07
-5.44841e-07
-7.20711e-07
-4.7121e-07
-7.32602e-07
-3.9708e-07
-7.32734e-07
-3.23836e-07
-7.19105e-07
-2.53095e-07
-6.8965e-07
-1.86716e-07
-6.42342e-07
-1.26788e-07
-5.75328e-07
-7.56137e-08
-4.87087e-07
-3.56727e-08
-3.76583e-07
-9.57713e-09
-2.43412e-07
-8.80275e-08
-1.01247e-08
9.80194e-08
-3.76508e-08
2.70047e-07
-7.96994e-08
4.16655e-07
-1.3347e-07
5.37636e-07
-1.96318e-07
6.33698e-07
-2.65805e-07
7.06222e-07
-3.39735e-07
7.57079e-07
-4.16174e-07
7.88465e-07
-4.93452e-07
8.02719e-07
-5.70154e-07
8.02185e-07
-6.45107e-07
7.89093e-07
-7.17352e-07
7.65486e-07
-7.86119e-07
7.33171e-07
-8.50799e-07
6.93708e-07
-9.10916e-07
6.48409e-07
-9.66105e-07
5.98365e-07
-1.01609e-06
5.44469e-07
-1.06065e-06
4.87447e-07
-1.09965e-06
4.27893e-07
-1.13295e-06
3.66293e-07
-1.16048e-06
3.03047e-07
-1.18217e-06
2.38497e-07
-1.19797e-06
1.72936e-07
-1.20785e-06
1.06627e-07
-1.21176e-06
3.98094e-08
-1.2097e-06
-2.72852e-08
-1.20163e-06
-9.44274e-08
-1.18755e-06
-1.6138e-07
-1.16745e-06
-2.27886e-07
-1.14135e-06
-2.93664e-07
-1.10927e-06
-3.5839e-07
-1.07126e-06
-4.21685e-07
-1.02741e-06
-4.831e-07
-9.77866e-07
-5.42093e-07
-9.22817e-07
-5.98005e-07
-8.62542e-07
-6.50037e-07
-7.97417e-07
-6.97216e-07
-7.27938e-07
-7.38371e-07
-6.54749e-07
-7.72107e-07
-5.78667e-07
-7.96793e-07
-5.00708e-07
-8.10561e-07
-4.22113e-07
-8.11329e-07
-3.44363e-07
-7.96854e-07
-2.692e-07
-7.64814e-07
-1.98619e-07
-7.12922e-07
-1.3487e-07
-6.39078e-07
-8.04207e-08
-5.41536e-07
-3.79278e-08
-4.19075e-07
-1.01758e-08
-2.71164e-07
-9.82034e-08
-1.07807e-08
1.088e-07
-4.01044e-08
2.9937e-07
-8.49018e-08
4.61453e-07
-1.42176e-07
5.9491e-07
-2.09089e-07
7.00611e-07
-2.8302e-07
7.80153e-07
-3.61608e-07
8.35667e-07
-4.42773e-07
8.69629e-07
-5.24722e-07
8.84668e-07
-6.05944e-07
8.83407e-07
-6.8519e-07
8.68339e-07
-7.61447e-07
8.41743e-07
-8.33909e-07
8.05634e-07
-9.01949e-07
7.61747e-07
-9.65083e-07
7.11543e-07
-1.02295e-06
6.56232e-07
-1.07528e-06
5.96799e-07
-1.12188e-06
5.34047e-07
-1.16261e-06
4.68624e-07
-1.19737e-06
4.01055e-07
-1.2261e-06
3.31774e-07
-1.24874e-06
2.61138e-07
-1.26526e-06
1.89455e-07
-1.27563e-06
1.16994e-07
-1.27981e-06
4.39976e-08
-1.2778e-06
-2.93007e-08
-1.26956e-06
-1.02671e-07
-1.25506e-06
-1.75873e-07
-1.2343e-06
-2.48648e-07
-1.20726e-06
-3.20703e-07
-1.17395e-06
-3.91699e-07
-1.1344e-06
-4.61235e-07
-1.08868e-06
-5.28824e-07
-1.03689e-06
-5.93877e-07
-9.79227e-07
-6.55672e-07
-9.15942e-07
-7.13322e-07
-8.47411e-07
-7.65747e-07
-7.74138e-07
-8.11644e-07
-6.9679e-07
-8.49455e-07
-6.16226e-07
-8.77357e-07
-5.33525e-07
-8.93262e-07
-4.50012e-07
-8.94841e-07
-3.67283e-07
-8.79583e-07
-2.87213e-07
-8.44885e-07
-2.11957e-07
-7.88178e-07
-1.4394e-07
-7.07094e-07
-8.58262e-08
-5.9965e-07
-4.0469e-08
-4.64433e-07
-1.08524e-08
-3.00781e-07
-1.09056e-07
-1.15207e-08
1.20321e-07
-4.28657e-08
3.30715e-07
-9.07463e-08
5.09334e-07
-1.51939e-07
6.56103e-07
-2.23386e-07
7.72058e-07
-3.02257e-07
8.59024e-07
-3.86003e-07
9.19413e-07
-4.7238e-07
9.56006e-07
-5.59459e-07
9.71747e-07
-6.45619e-07
9.69567e-07
-7.2953e-07
9.52249e-07
-8.10121e-07
9.22334e-07
-8.86551e-07
8.82064e-07
-9.58174e-07
8.3337e-07
-1.02451e-06
7.77875e-07
-1.08519e-06
7.16916e-07
-1.13998e-06
6.51585e-07
-1.18869e-06
5.82761e-07
-1.23121e-06
5.11149e-07
-1.26748e-06
4.37319e-07
-1.29743e-06
3.6173e-07
-1.32105e-06
2.84757e-07
-1.33831e-06
2.06715e-07
-1.34919e-06
1.27876e-07
-1.35368e-06
4.84817e-08
-1.35174e-06
-3.12401e-08
-1.34335e-06
-1.11064e-07
-1.32846e-06
-1.90755e-07
-1.30706e-06
-2.70054e-07
-1.2791e-06
-3.48663e-07
-1.24456e-06
-4.26234e-07
-1.20346e-06
-5.02343e-07
-1.15581e-06
-5.76472e-07
-1.10171e-06
-6.4798e-07
-1.0413e-06
-7.16076e-07
-9.74837e-07
-7.79785e-07
-9.02677e-07
-8.37908e-07
-8.25328e-07
-8.88992e-07
-7.43479e-07
-9.31304e-07
-6.58032e-07
-9.62805e-07
-5.70132e-07
-9.81162e-07
-4.812e-07
-9.83773e-07
-3.92956e-07
-9.67828e-07
-3.07427e-07
-9.30414e-07
-2.2695e-07
-8.68655e-07
-1.54154e-07
-7.7989e-07
-9.19229e-08
-6.61881e-07
-4.33397e-08
-5.13016e-07
-1.16182e-08
-3.32502e-07
-1.20674e-07
-1.23562e-08
1.32677e-07
-4.59788e-08
3.64338e-07
-9.73257e-08
5.60681e-07
-1.62913e-07
7.2169e-07
-2.39427e-07
8.48572e-07
-3.23799e-07
9.43397e-07
-4.13266e-07
1.00888e-06
-5.05395e-07
1.04814e-06
-5.98107e-07
1.06446e-06
-6.89658e-07
1.06112e-06
-7.78628e-07
1.04122e-06
-8.63889e-07
1.00759e-06
-9.44562e-07
9.62737e-07
-1.01999e-06
9.08796e-07
-1.08968e-06
8.4757e-07
-1.15331e-06
7.80542e-07
-1.21064e-06
7.08912e-07
-1.26152e-06
6.33645e-07
-1.30588e-06
5.55507e-07
-1.34366e-06
4.75106e-07
-1.37486e-06
3.92929e-07
-1.39947e-06
3.09364e-07
-1.41748e-06
2.24729e-07
-1.4289e-06
1.39292e-07
-1.43371e-06
5.32868e-08
-1.43188e-06
-3.30712e-08
-1.42337e-06
-1.19569e-07
-1.40814e-06
-2.05982e-07
-1.38614e-06
-2.92059e-07
-1.3573e-06
-3.77506e-07
-1.32156e-06
-4.61967e-07
-1.2789e-06
-5.45002e-07
-1.22932e-06
-6.2606e-07
-1.17284e-06
-7.04453e-07
-1.1096e-06
-7.79317e-07
-1.03981e-06
-8.49578e-07
-9.63806e-07
-9.13911e-07
-8.821e-07
-9.70699e-07
-7.95396e-07
-1.01801e-06
-7.04637e-07
-1.05356e-06
-6.11043e-07
-1.07476e-06
-5.16137e-07
-1.07868e-06
-4.21778e-07
-1.06219e-06
-3.30168e-07
-1.02202e-06
-2.43849e-07
-9.54973e-07
-1.65686e-07
-8.58054e-07
-9.88159e-08
-7.28751e-07
-4.65894e-08
-5.65242e-07
-1.24861e-08
-3.66606e-07
-1.3316e-07
-1.33009e-08
1.45978e-07
-4.94951e-08
4.00532e-07
-1.04748e-07
6.15933e-07
-1.75273e-07
7.92215e-07
-2.57461e-07
9.3076e-07
-3.4797e-07
1.03391e-06
-4.43785e-07
1.1047e-06
-5.42267e-07
1.14662e-06
-6.41158e-07
1.16335e-06
-7.38584e-07
1.15854e-06
-8.33028e-07
1.13566e-06
-9.23298e-07
1.09786e-06
-1.00848e-06
1.04792e-06
-1.08791e-06
9.88227e-07
-1.16112e-06
9.20775e-07
-1.22778e-06
8.47205e-07
-1.28771e-06
7.68838e-07
-1.34079e-06
6.86727e-07
-1.38699e-06
6.01702e-07
-1.42629e-06
5.14411e-07
-1.45872e-06
4.25362e-07
-1.48431e-06
3.34953e-07
-1.50308e-06
2.43498e-07
-1.51504e-06
1.51254e-07
-1.52019e-06
5.84375e-08
-1.51851e-06
-3.47553e-08
-1.50995e-06
-1.28133e-07
-1.49444e-06
-2.21491e-07
-1.4719e-06
-3.14595e-07
-1.44224e-06
-4.07161e-07
-1.40538e-06
-4.98834e-07
-1.36122e-06
-5.89162e-07
-1.30971e-06
-6.77567e-07
-1.25085e-06
-7.63311e-07
-1.18471e-06
-8.45456e-07
-1.11147e-06
-9.22824e-07
-1.03143e-06
-9.93949e-07
-9.45091e-07
-1.05704e-06
-8.53173e-07
-1.10993e-06
-7.56657e-07
-1.15008e-06
-6.56835e-07
-1.17458e-06
-5.55347e-07
-1.18017e-06
-4.54206e-07
-1.16333e-06
-3.55811e-07
-1.12042e-06
-2.62944e-07
-1.04784e-06
-1.78738e-07
-9.42259e-07
-1.06629e-07
-8.0086e-07
-5.02771e-08
-6.21594e-07
-1.34717e-08
-4.03411e-07
-1.46632e-07
-1.43715e-08
1.6035e-07
-5.34768e-08
4.39637e-07
-1.13141e-07
6.75598e-07
-1.89228e-07
8.68301e-07
-2.77783e-07
1.01932e-06
-3.75145e-07
1.13127e-06
-4.78014e-07
1.20756e-06
-5.83506e-07
1.25211e-06
-6.89171e-07
1.26901e-06
-7.92985e-07
1.26236e-06
-8.93328e-07
1.23601e-06
-9.88944e-07
1.19348e-06
-1.07889e-06
1.13787e-06
-1.16251e-06
1.07184e-06
-1.23933e-06
9.97601e-07
-1.30909e-06
9.16962e-07
-1.37163e-06
8.31377e-07
-1.4269e-06
7.41993e-07
-1.4749e-06
6.49702e-07
-1.51568e-06
5.55192e-07
-1.5493e-06
4.58989e-07
-1.57584e-06
3.61492e-07
-1.59535e-06
2.63004e-07
-1.60786e-06
1.63762e-07
-1.61338e-06
6.39571e-08
-1.61189e-06
-3.62467e-08
-1.60333e-06
-1.36689e-07
-1.58763e-06
-2.37197e-07
-1.56466e-06
-3.37562e-07
-1.5343e-06
-4.3752e-07
-1.49641e-06
-5.36727e-07
-1.45084e-06
-6.34726e-07
-1.39749e-06
-7.30917e-07
-1.33629e-06
-8.24515e-07
-1.26724e-06
-9.14506e-07
-1.19046e-06
-9.99602e-07
-1.10623e-06
-1.07818e-06
-1.01501e-06
-1.14825e-06
-9.17522e-07
-1.20741e-06
-8.14786e-07
-1.25281e-06
-7.08171e-07
-1.28119e-06
-5.99438e-07
-1.2889e-06
-4.90774e-07
-1.27199e-06
-3.84803e-07
-1.22639e-06
-2.8458e-07
-1.14806e-06
-1.93556e-07
-1.03328e-06
-1.15513e-07
-8.78903e-07
-5.44745e-08
-6.82633e-07
-1.45941e-08
-4.43291e-07
-1.61226e-07
-1.55888e-08
1.75938e-07
-5.80002e-08
4.82049e-07
-1.22664e-07
7.40262e-07
-2.05031e-07
9.50668e-07
-3.00747e-07
1.11503e-06
-4.05773e-07
1.23629e-06
-5.16482e-07
1.31827e-06
-6.2971e-07
1.36534e-06
-7.42788e-07
1.38209e-06
-8.53528e-07
1.3731e-06
-9.60199e-07
1.34268e-06
-1.06149e-06
1.29476e-06
-1.15643e-06
1.23281e-06
-1.24436e-06
1.15977e-06
-1.32487e-06
1.07811e-06
-1.39772e-06
9.89817e-07
-1.46283e-06
8.96489e-07
-1.52021e-06
7.99372e-07
-1.56993e-06
6.99422e-07
-1.6121e-06
5.97363e-07
-1.64684e-06
4.9373e-07
-1.67427e-06
3.88917e-07
-1.69447e-06
2.83208e-07
-1.70752e-06
1.76807e-07
-1.71343e-06
6.98667e-08
-1.71218e-06
-3.74912e-08
-1.70372e-06
-1.45151e-07
-1.68794e-06
-2.52983e-07
-1.66468e-06
-3.60818e-07
-1.63378e-06
-4.68426e-07
-1.59502e-06
-5.75481e-07
-1.54821e-06
-6.81534e-07
-1.49316e-06
-7.85968e-07
-1.42972e-06
-8.87957e-07
-1.35781e-06
-9.86413e-07
-1.27749e-06
-1.07993e-06
-1.18895e-06
-1.16672e-06
-1.09264e-06
-1.24457e-06
-9.89247e-07
-1.3108e-06
-8.79827e-07
-1.36223e-06
-7.65823e-07
-1.3952e-06
-6.49127e-07
-1.40559e-06
-5.32119e-07
-1.389e-06
-4.17679e-07
-1.34083e-06
-3.09179e-07
-1.25656e-06
-2.1044e-07
-1.13202e-06
-1.25653e-07
-9.6369e-07
-5.92716e-08
-7.49014e-07
-1.58777e-08
-4.86685e-07
-1.77104e-07
-1.69788e-08
1.92917e-07
-6.31606e-08
5.28231e-07
-1.33511e-07
8.10613e-07
-2.22994e-07
1.04015e-06
-3.2678e-07
1.21882e-06
-4.40393e-07
1.34991e-06
-5.59821e-07
1.4377e-06
-6.81581e-07
1.4871e-06
-8.02753e-07
1.50326e-06
-9.20973e-07
1.49132e-06
-1.0344e-06
1.4561e-06
-1.14165e-06
1.40202e-06
-1.24176e-06
1.33292e-06
-1.33409e-06
1.2521e-06
-1.41827e-06
1.1623e-06
-1.49416e-06
1.0657e-06
-1.56173e-06
9.64061e-07
-1.62108e-06
8.58725e-07
-1.67237e-06
7.50713e-07
-1.71579e-06
6.40777e-07
-1.75151e-06
5.29457e-07