/*--------------------------------*- C++ -*----------------------------------*\
  =========                 |
  \\      /  F ield         | OpenFOAM: The Open Source CFD Toolbox
   \\    /   O peration     | Website:  https://openfoam.org
    \\  /    A nd           | Version:  7
     \\/     M anipulation  |
\*---------------------------------------------------------------------------*/
FoamFile
{
    version     2.0;
    format      ascii;
    class       surfaceScalarField;
    location    "0.0796";
    object      phi;
}
// * * * * * * * * * * * * * * * * * * * * * * * * * * * * * * * * * * * * * //

dimensions      [0 3 -1 0 0 0 0];

internalField   nonuniform List<scalar> 
4900
(
5.45461e-06
-5.45461e-06
9.95308e-06
-4.49848e-06
1.26939e-05
-2.7408e-06
1.44122e-05
-1.71833e-06
1.55286e-05
-1.11634e-06
1.62819e-05
-7.53329e-07
1.68132e-05
-5.31284e-07
1.72039e-05
-3.90776e-07
1.75014e-05
-2.97488e-07
1.77339e-05
-2.3248e-07
1.79191e-05
-1.85225e-07
1.80688e-05
-1.49659e-07
1.81909e-05
-1.22134e-07
1.82913e-05
-1.00352e-07
1.83741e-05
-8.2799e-08
1.84425e-05
-6.8438e-08
1.8499e-05
-5.65299e-08
1.85456e-05
-4.65313e-08
1.85836e-05
-3.80306e-08
1.86143e-05
-3.07073e-08
1.86386e-05
-2.43048e-08
1.86572e-05
-1.86121e-08
1.86707e-05
-1.34504e-08
1.86793e-05
-8.66395e-09
1.86835e-05
-4.11232e-09
1.86831e-05
3.38355e-10
1.86783e-05
4.8112e-09
1.86689e-05
9.44035e-09
1.86545e-05
1.43604e-08
1.86348e-05
1.97216e-08
1.86091e-05
2.56948e-08
1.85766e-05
3.24821e-08
1.85363e-05
4.03302e-08
1.84867e-05
4.95491e-08
1.84262e-05
6.05401e-08
1.83524e-05
7.38368e-08
1.82622e-05
9.0169e-08
1.81516e-05
1.10565e-07
1.80151e-05
1.36526e-07
1.78448e-05
1.70325e-07
1.76292e-05
2.15565e-07
1.7351e-05
2.78236e-07
1.69822e-05
3.68802e-07
1.64758e-05
5.06343e-07
1.57496e-05
7.26231e-07
1.46576e-05
1.09201e-06
1.29452e-05
1.71242e-06
1.0162e-05
2.7832e-06
5.55722e-06
4.60473e-06
5.55722e-06
-1.19321e-07
-5.33529e-06
1.8318e-06
-6.4496e-06
4.41349e-06
-5.32248e-06
6.72994e-06
-4.03479e-06
8.61084e-06
-2.99723e-06
1.00946e-05
-2.2371e-06
1.12609e-05
-1.69759e-06
1.21838e-05
-1.31369e-06
1.29218e-05
-1.03543e-06
1.35183e-05
-8.28981e-07
1.40052e-05
-6.72135e-07
1.44059e-05
-5.50338e-07
1.47376e-05
-4.53911e-07
1.50136e-05
-3.7628e-07
1.52436e-05
-3.12866e-07
1.54356e-05
-2.60397e-07
1.55955e-05
-2.16468e-07
1.57283e-05
-1.7927e-07
1.58376e-05
-1.47407e-07
1.59267e-05
-1.19773e-07
1.59979e-05
-9.54704e-08
1.6053e-05
-7.37535e-08
1.60936e-05
-5.39837e-08
1.61205e-05
-3.55987e-08
1.61345e-05
-1.80871e-08
1.61358e-05
-9.69883e-10
1.61244e-05
1.62263e-08
1.60998e-05
3.39736e-08
1.60614e-05
5.27744e-08
1.6008e-05
7.31771e-08
1.59378e-05
9.58037e-08
1.58489e-05
1.21384e-07
1.57385e-05
1.50799e-07
1.56029e-05
1.85146e-07
1.54376e-05
2.25825e-07
1.52368e-05
2.74667e-07
1.49928e-05
3.34126e-07
1.46958e-05
4.0757e-07
1.43326e-05
4.9974e-07
1.38854e-05
6.1748e-07
1.33301e-05
7.70924e-07
1.26329e-05
9.75429e-07
1.1747e-05
1.25466e-06
1.06082e-05
1.64521e-06
9.13219e-06
2.20219e-06
7.22467e-06
2.99953e-06
4.83163e-06
4.10546e-06
2.12104e-06
5.4938e-06
1.07204e-08
6.71505e-06
5.56794e-06
-1.08241e-06
-4.25288e-06
-7.53901e-07
-6.77811e-06
5.90078e-07
-6.66646e-06
2.30304e-06
-5.74775e-06
4.01527e-06
-4.70946e-06
5.5681e-06
-3.78994e-06
6.91429e-06
-3.04378e-06
8.05736e-06
-2.45676e-06
9.01981e-06
-1.99788e-06
9.82833e-06
-1.63751e-06
1.05079e-05
-1.35172e-06
1.108e-05
-1.12243e-06
1.15624e-05
-9.36275e-07
1.19695e-05
-7.83406e-07
1.23132e-05
-6.56526e-07
1.26029e-05
-5.50154e-07
1.28466e-05
-4.60104e-07
1.30504e-05
-3.83123e-07
1.32196e-05
-3.16633e-07
1.33584e-05
-2.58547e-07
1.34701e-05
-2.0714e-07
1.35573e-05
-1.60951e-07
1.3622e-05
-1.18715e-07
1.36657e-05
-7.93019e-08
1.36893e-05
-4.16755e-08
1.36932e-05
-4.85496e-09
1.36773e-05
3.21266e-08
1.3641e-05
7.02432e-08
1.35833e-05
1.10525e-07
1.35023e-05
1.54092e-07
1.33959e-05
2.02207e-07
1.3261e-05
2.56333e-07
1.30936e-05
3.18221e-07
1.28887e-05
3.90011e-07
1.26402e-05
4.74384e-07
1.234e-05
5.74771e-07
1.19785e-05
6.95642e-07
1.15432e-05
8.42927e-07
1.10183e-05
1.02461e-06
1.03842e-05
1.25158e-06
9.61634e-06
1.53879e-06
8.68504e-06
1.90674e-06
7.55673e-06
2.38296e-06
6.19956e-06
3.00238e-06
4.59883e-06
3.80293e-06
2.7922e-06
4.80616e-06
9.38397e-07
5.95926e-06
-5.70476e-07
7.00267e-06
-1.03811e-06
7.18268e-06
4.52983e-06
-9.12943e-07
-3.33994e-06
-1.34109e-06
-6.34996e-06
-9.3572e-07
-7.07183e-06
2.33169e-08
-6.70679e-06
1.24226e-06
-5.9284e-06
2.52157e-06
-5.06925e-06
3.74845e-06
-4.27066e-06
4.87015e-06
-3.57845e-06
5.86877e-06
-2.99651e-06
6.74442e-06
-2.51315e-06
7.50545e-06
-2.11275e-06
8.16331e-06
-1.78029e-06
8.72995e-06
-1.50291e-06
9.2166e-06
-1.27006e-06
9.63336e-06
-1.07329e-06
9.98906e-06
-9.05848e-07
1.02913e-05
-7.62299e-07
1.05464e-05
-6.38252e-07
1.07599e-05
-5.30102e-07
1.09362e-05
-4.34848e-07
1.1079e-05
-3.49943e-07
1.11912e-05
-2.73188e-07
1.12751e-05
-2.02641e-07
1.13324e-05
-1.36542e-07
1.13639e-05
-7.3257e-08
1.13703e-05
-1.12253e-08
1.13513e-05
5.10954e-08
1.13063e-05
1.15269e-07
1.12339e-05
1.82941e-07
1.11321e-05
2.55891e-07
1.09982e-05
3.36107e-07
1.08287e-05
4.25864e-07
1.06191e-05
5.27837e-07
1.03638e-05
6.45233e-07
1.00562e-05
7.81976e-07
9.68808e-06
9.42935e-07
9.24948e-06
1.13424e-06
8.72875e-06
1.36366e-06
8.11225e-06
1.6411e-06
7.3847e-06
1.97913e-06
6.53006e-06
2.39343e-06
5.53404e-06
2.90276e-06
4.38942e-06
3.52758e-06
3.10675e-06
4.28504e-06
1.73363e-06
5.17605e-06
3.84863e-07
6.15493e-06
-7.23767e-07
7.06789e-06
-1.26535e-06
7.54426e-06
-9.15774e-07
6.8331e-06
3.61406e-06
-6.64598e-07
-2.67534e-06
-1.29655e-06
-5.71802e-06
-1.41657e-06
-6.95181e-06
-1.03983e-06
-7.08353e-06
-3.20853e-07
-6.64738e-06
5.82813e-07
-5.97291e-06
1.55289e-06
-5.24074e-06
2.51345e-06
-4.53901e-06
3.42124e-06
-3.9043e-06
4.25483e-06
-3.34674e-06
5.00616e-06
-2.86408e-06
5.67483e-06
-2.44897e-06
6.26456e-06
-2.09264e-06
6.78099e-06
-1.78649e-06
7.23045e-06
-1.52275e-06
7.61927e-06
-1.29467e-06
7.95342e-06
-1.09645e-06
8.2383e-06
-9.23128e-07
8.47867e-06
-7.70471e-07
8.67863e-06
-6.34812e-07
8.84164e-06
-5.1295e-07
8.97049e-06
-4.02044e-07
9.06738e-06
-2.99529e-07
9.13388e-06
-2.03043e-07
9.17099e-06
-1.10358e-07
9.17909e-06
-1.9326e-08
9.15799e-06
7.2187e-08
9.10691e-06
1.66351e-07
9.02441e-06
2.6544e-07
8.9084e-06
3.719e-07
8.75608e-06
4.88425e-07
8.56389e-06
6.18058e-07
8.32743e-06
7.64299e-07
8.04142e-06
9.31245e-07
7.69963e-06
1.12376e-06
7.29491e-06
1.34766e-06
6.81919e-06
1.60996e-06
6.26382e-06
1.91903e-06
5.6201e-06
2.28482e-06
4.88048e-06
2.71875e-06
4.04077e-06
3.23313e-06
3.10412e-06
3.83941e-06
2.08753e-06
4.54418e-06
1.032e-06
5.34057e-06
1.62594e-08
6.19179e-06
-8.30406e-07
7.00159e-06
-1.32818e-06
7.56566e-06
-1.29239e-06
7.50847e-06
-6.84806e-07
6.22552e-06
2.92925e-06
-4.70531e-07
-2.20481e-06
-1.09876e-06
-5.08979e-06
-1.46606e-06
-6.5845e-06
-1.46586e-06
-7.08374e-06
-1.14393e-06
-6.9693e-06
-5.95295e-07
-6.52155e-06
8.63613e-08
-5.9224e-06
8.27148e-07
-5.2798e-06
1.5754e-06
-4.65255e-06
2.29802e-06
-4.06937e-06
2.97558e-06
-3.54164e-06
3.598e-06
-3.07139e-06
4.16125e-06
-2.65589e-06
4.66506e-06
-2.29029e-06
5.11133e-06
-1.96903e-06
5.50314e-06
-1.68648e-06
5.84407e-06
-1.43738e-06
6.1378e-06
-1.21686e-06
6.38785e-06
-1.02052e-06
6.59744e-06
-8.44399e-07
6.76937e-06
-6.84878e-07
6.90598e-06
-5.38661e-07
7.00915e-06
-4.0269e-07
7.08019e-06
-2.74092e-07
7.11995e-06
-1.50115e-07
7.1287e-06
-2.80752e-08
7.10618e-06
9.47088e-08
7.05156e-06
2.20969e-07
6.96345e-06
3.53556e-07
6.83984e-06
4.9551e-07
6.67813e-06
6.50135e-07
6.47509e-06
8.21094e-07
6.22689e-06
1.0125e-06
5.92911e-06
1.22903e-06
5.57685e-06
1.47602e-06
5.16492e-06
1.75959e-06
4.68819e-06
2.08669e-06
4.14221e-06
2.46501e-06
3.52427e-06
2.90276e-06
2.83512e-06
3.40791e-06
2.08159e-06
3.98665e-06
1.28064e-06
4.64036e-06
4.64752e-07
5.36006e-06
-3.11489e-07
6.11681e-06
-9.65899e-07
6.8462e-06
-1.38965e-06
7.42535e-06
-1.46758e-06
7.6436e-06
-1.13527e-06
7.17616e-06
-4.96321e-07
5.58657e-06
2.43293e-06
-3.39512e-07
-1.8653e-06
-9.00724e-07
-4.52857e-06
-1.36149e-06
-6.12373e-06
-1.58046e-06
-6.86477e-06
-1.53921e-06
-7.01055e-06
-1.27982e-06
-6.78094e-06
-8.63623e-07
-6.33859e-06
-3.49727e-07
-5.79369e-06
2.13578e-07
-5.21586e-06
7.90424e-07
-4.64621e-06
1.35597e-06
-4.10719e-06
1.89409e-06
-3.60951e-06
2.39508e-06
-3.15688e-06
2.85374e-06
-2.74896e-06
3.26793e-06
-2.38322e-06
3.63748e-06
-2.05603e-06
3.9634e-06
-1.7633e-06
4.24739e-06
-1.50085e-06
4.49145e-06
-1.26458e-06
4.69762e-06
-1.05057e-06
4.86781e-06
-8.55066e-07
5.00369e-06
-6.74543e-07
5.10662e-06
-5.05619e-07
5.17757e-06
-3.45047e-07
5.21712e-06
-1.89662e-07
5.22538e-06
-3.63395e-08
5.20204e-06
1.18056e-07
5.14628e-06
2.76727e-07
5.05684e-06
4.42997e-07
4.93197e-06
6.20375e-07
4.76949e-06
8.12617e-07
4.56679e-06
1.02379e-06
4.32094e-06
1.25835e-06
4.0288e-06
1.52117e-06
3.68726e-06
1.81756e-06
3.29356e-06
2.15329e-06
2.84589e-06
2.53436e-06
2.34416e-06
2.96673e-06
1.79131e-06
3.45561e-06
1.19503e-06
4.0042e-06
5.70203e-07
4.61148e-06
-5.80363e-08
5.2686e-06
-6.5101e-07
5.95303e-06
-1.15403e-06
6.61983e-06
-1.49737e-06
7.18954e-06
-1.60552e-06
7.53349e-06
-1.4222e-06
7.46028e-06
-9.58776e-07
6.71273e-06
-3.66308e-07
4.9941e-06
2.06662e-06
-2.54552e-07
-1.61075e-06
-7.3963e-07
-4.0435e-06
-1.21854e-06
-5.64482e-06
-1.55466e-06
-6.52866e-06
-1.699e-06
-6.86621e-06
-1.65749e-06
-6.82245e-06
-1.46281e-06
-6.53327e-06
-1.15584e-06
-6.10066e-06
-7.75585e-07
-5.59612e-06
-3.54776e-07
-5.06702e-06
8.11753e-08
-4.54314e-06
5.13667e-07
-4.042e-06
9.29758e-07
-3.57297e-06
1.32092e-06
-3.14012e-06
1.68189e-06
-2.74419e-06
2.00979e-06
-2.38392e-06
2.30332e-06
-2.05683e-06
2.56229e-06
-1.75981e-06
2.78712e-06
-1.48942e-06
2.97862e-06
-1.24207e-06
3.13772e-06
-1.01416e-06
3.26532e-06
-8.02141e-07
3.36218e-06
-6.02483e-07
3.42886e-06
-4.11722e-07
3.46561e-06
-2.26419e-07
3.47241e-06
-4.31334e-08
3.44886e-06
1.41605e-07
3.39424e-06
3.31343e-07
3.3075e-06
5.2974e-07
3.18726e-06
7.40616e-07
3.03189e-06
9.67984e-07
2.8396e-06
1.21609e-06
2.60854e-06
1.48941e-06
2.33706e-06
1.79265e-06
2.02395e-06
2.13067e-06
1.66896e-06
2.50828e-06
1.27338e-06
2.92994e-06
8.40942e-07
3.39917e-06
3.78988e-07
3.91757e-06
-1.00012e-07
4.4832e-06
-5.76711e-07
5.08818e-06
-1.02312e-06
5.71501e-06
-1.40146e-06
6.33138e-06
-1.66492e-06
6.88329e-06
-1.76239e-06
7.28701e-06
-1.6504e-06
7.42151e-06
-1.31557e-06
7.12545e-06
-8.08326e-07
6.20549e-06
-2.80878e-07
4.46665e-06
1.78575e-06
-1.98947e-07
-1.4118e-06
-6.16734e-07
-3.62571e-06
-1.08112e-06
-5.18043e-06
-1.47389e-06
-6.13588e-06
-1.73565e-06
-6.60445e-06
-1.85095e-06
-6.70715e-06
-1.8311e-06
-6.55312e-06
-1.70033e-06
-6.23143e-06
-1.48667e-06
-5.80978e-06
-1.21675e-06
-5.33694e-06
-9.13405e-07
-4.84648e-06
-5.94969e-07
-4.36043e-06
-2.7544e-07
-3.89249e-06
3.49251e-08
-3.45048e-06
3.28914e-07
-3.03818e-06
6.01674e-07
-2.65668e-06
8.50118e-07
-2.30528e-06
1.07243e-06
-1.98213e-06
1.26768e-06
-1.68467e-06
1.4355e-06
-1.40989e-06
1.57588e-06
-1.15454e-06
1.68895e-06
-9.15215e-07
1.7749e-06
-6.88427e-07
1.83381e-06
-4.7064e-07
1.86568e-06
-2.58284e-07
1.87029e-06
-4.77416e-08
1.84723e-06
1.6466e-07
1.79591e-06
3.82668e-07
1.71552e-06
6.10127e-07
1.60515e-06
8.50993e-07
1.46379e-06
1.10934e-06
1.29052e-06
1.38935e-06
1.08466e-06
1.69527e-06
8.45987e-07
2.03132e-06
5.75137e-07
2.40152e-06
2.7404e-07
2.80937e-06
-5.34487e-08
3.25743e-06
-4.00763e-07
3.74649e-06
-7.57676e-07
4.27448e-06
-1.10925e-06
4.83477e-06
-1.43486e-06
5.41379e-06
-1.70763e-06
5.98779e-06
-1.89499e-06
6.51874e-06
-1.9613e-06
6.9496e-06
-1.87406e-06
7.19978e-06
-1.61527e-06
7.16271e-06
-1.19846e-06
6.70864e-06
-6.89656e-07
5.69668e-06
-2.24206e-07
4.0012e-06
1.56154e-06
-1.61602e-07
-1.2502e-06
-5.24806e-07
-3.26251e-06
-9.63093e-07
-4.74215e-06
-1.37874e-06
-5.72024e-06
-1.71232e-06
-6.27087e-06
-1.93745e-06
-6.48202e-06
-2.05111e-06
-6.43945e-06
-2.06433e-06
-6.21821e-06
-1.99487e-06
-5.87924e-06
-1.86236e-06
-5.46945e-06
-1.68548e-06
-5.02336e-06
-1.48052e-06
-4.56539e-06
-1.26092e-06
-4.11209e-06
-1.03731e-06
-3.6741e-06
-8.17774e-07
-3.25771e-06
-6.08328e-07
-2.86613e-06
-4.13278e-07
-2.50033e-06
-2.35622e-07
-2.15978e-06
-7.7386e-08
-1.8429e-06
6.01078e-08
-1.54738e-06
1.76017e-07
-1.27045e-06
2.69803e-07
-1.009e-06
3.41102e-07
-7.59725e-07
3.8962e-07
-5.19158e-07
4.15063e-07
-2.83727e-07
4.17095e-07
-4.97737e-08
3.95315e-07
1.86439e-07
3.49263e-07
4.2872e-07
2.78446e-07
6.80944e-07
1.82399e-07
9.47039e-07
6.07835e-08
1.23096e-06
-8.64798e-08
1.53661e-06
-2.59012e-07
1.8678e-06
-4.55716e-07
2.22803e-06
-6.74434e-07
2.62024e-06
-9.11514e-07
3.04645e-06
-1.16128e-06
3.50719e-06
-1.41541e-06
4.00062e-06
-1.66231e-06
4.52138e-06
-1.88656e-06
5.05901e-06
-2.06859e-06
5.59582e-06
-2.18513e-06
6.10432e-06
-2.21072e-06
6.54432e-06
-2.12118e-06
6.86006e-06
-1.89978e-06
6.97838e-06
-1.54646e-06
6.8094e-06
-1.08966e-06
6.25184e-06
-5.97908e-07
5.20493e-06
-1.85413e-07
3.58871e-06
1.37613e-06
-1.3579e-07
-1.11441e-06
-4.56205e-07
-2.94209e-06
-8.6651e-07
-4.33184e-06
-1.28719e-06
-5.29956e-06
-1.66339e-06
-5.89467e-06
-1.96424e-06
-6.18117e-06
-2.17796e-06
-6.22574e-06
-2.30593e-06
-6.09023e-06
-2.3574e-06
-5.82777e-06
-2.34534e-06
-5.4815e-06
-2.28377e-06
-5.08493e-06
-2.18604e-06
-4.66313e-06
-2.06397e-06
-4.23416e-06
-1.92757e-06
-3.8105e-06
-1.78498e-06
-3.40031e-06
-1.64261e-06
-3.0085e-06
-1.50542e-06
-2.63751e-06
-1.37717e-06
-2.28804e-06
-1.26063e-06
-1.95944e-06
-1.15785e-06
-1.65017e-06
-1.0703e-06
-1.35799e-06
-9.99082e-07
-1.08022e-06
-9.44993e-07
-8.13814e-07
-9.08659e-07
-5.55493e-07
-8.90583e-07
-3.01803e-07
-8.91194e-07
-4.91628e-08
-9.10858e-07
2.06103e-07
-9.4987e-07
4.67733e-07
-1.00842e-06
7.39495e-07
-1.08652e-06
1.02514e-06
-1.18392e-06
1.32835e-06
-1.29992e-06
1.65262e-06
-1.43325e-06
2.00113e-06
-1.58174e-06
2.37652e-06
-1.74211e-06
2.7806e-06
-1.90952e-06
3.21387e-06
-2.07726e-06
3.67493e-06
-2.23626e-06
4.15962e-06
-2.37484e-06
4.65996e-06
-2.47853e-06
5.1627e-06
-2.53034e-06
5.64764e-06
-2.51177e-06
6.08575e-06
-2.40477e-06
6.43733e-06
-2.19537e-06
6.65065e-06
-1.87888e-06
6.66188e-06
-1.46685e-06
6.39737e-06
-9.94559e-07
5.77955e-06
-5.26782e-07
4.73715e-06
-1.57855e-07
3.21978e-06
1.21827e-06
-1.17476e-07
-9.96932e-07
-4.04785e-07
-2.65478e-06
-7.89274e-07
-3.94735e-06
-1.20626e-06
-4.88257e-06
-1.60692e-06
-5.49401e-06
-1.95956e-06
-5.82853e-06
-2.24752e-06
-5.93778e-06
-2.46562e-06
-5.87213e-06
-2.61649e-06
-5.67691e-06
-2.70738e-06
-5.39061e-06
-2.74782e-06
-5.0445e-06
-2.7479e-06
-4.66305e-06
-2.71733e-06
-4.26473e-06
-2.66484e-06
-3.86299e-06
-2.59796e-06
-3.46719e-06
-2.52298e-06
-3.08348e-06
-2.44501e-06
-2.71548e-06
-2.36815e-06
-2.3649e-06
-2.2956e-06
-2.03198e-06
-2.22988e-06
-1.71589e-06
-2.1729e-06
-1.41497e-06
-2.12614e-06
-1.12698e-06
-2.09075e-06
-8.49213e-07
-2.06757e-06
-5.78672e-07
-2.05726e-06
-3.12111e-07
-2.0603e-06
-4.61249e-08
-2.07699e-06
2.22793e-07
-2.10745e-06
4.98199e-07
-2.1516e-06
7.8364e-07
-2.20903e-06
1.08258e-06
-2.27898e-06
1.3983e-06
-2.36014e-06
1.73378e-06
-2.45052e-06
2.09151e-06
-2.54722e-06
2.47322e-06
-2.6462e-06
2.87959e-06
-2.74203e-06
3.3097e-06
-2.82762e-06
3.76051e-06
-2.89401e-06
4.22602e-06
-2.93037e-06
4.69632e-06
-2.92413e-06
5.15646e-06
-2.86165e-06
5.58515e-06
-2.72943e-06
5.95353e-06
-2.5163e-06
6.2242e-06
-2.21653e-06
6.35088e-06
-1.83404e-06
6.27939e-06
-1.38722e-06
5.95056e-06
-9.13374e-07
5.3057e-06
-4.7098e-07
4.29476e-06
-1.37558e-07
2.88636e-06
1.08071e-06
-1.04195e-07
-8.92737e-07
-3.65997e-07
-2.39298e-06
-7.28218e-07
-3.58513e-06
-1.13778e-06
-4.47301e-06
-1.55188e-06
-5.07991e-06
-1.93989e-06
-5.44052e-06
-2.28276e-06
-5.59491e-06
-2.57109e-06
-5.5838e-06
-2.80264e-06
-5.44535e-06
-2.98005e-06
-5.2132e-06
-3.10883e-06
-4.91571e-06
-3.19596e-06
-4.57592e-06
-3.2488e-06
-4.21188e-06
-3.2745e-06
-3.83729e-06
-3.27958e-06
-3.46212e-06
-3.26977e-06
-3.09329e-06
-3.24997e-06
-2.73528e-06
-3.22428e-06
-2.39059e-06
-3.19606e-06
-2.06021e-06
-3.16802e-06
-1.74393e-06
-3.14235e-06
-1.44065e-06
-3.12075e-06
-1.14857e-06
-3.10456e-06
-8.65398e-07
-3.0948e-06
-5.88433e-07
-3.0922e-06
-3.14715e-07
-3.09723e-06
-4.10934e-08
-3.11012e-06
2.35686e-07
-3.13083e-06
5.1891e-07
-3.15901e-06
8.11818e-07
-3.19394e-06
1.1175e-06
-3.23442e-06
1.43878e-06
-3.2787e-06
1.77806e-06
-3.32432e-06
2.13712e-06
-3.36792e-06
2.51683e-06
-3.40512e-06
2.91679e-06
-3.43036e-06
3.33494e-06
-3.43675e-06
3.76689e-06
-3.41607e-06
4.20534e-06
-3.35895e-06
4.6392e-06
-3.25523e-06
5.05274e-06
-3.09482e-06
5.42474e-06
-2.86899e-06
5.7277e-06
-2.57236e-06
5.92757e-06
-2.20554e-06
5.98406e-06
-1.77822e-06
5.85207e-06
-1.31237e-06
5.48471e-06
-8.44591e-07
4.83792e-06
-4.26541e-07
3.87671e-06
-1.22127e-07
2.58194e-06
9.58588e-07
-9.44017e-08
-7.98335e-07
-3.36557e-07
-2.15082e-06
-6.80247e-07
-3.24144e-06
-1.08131e-06
-4.07194e-06
-1.50232e-06
-4.6589e-06
-1.91454e-06
-5.0283e-06
-2.2981e-06
-5.21135e-06
-2.64099e-06
-5.24092e-06
-2.93755e-06
-5.14879e-06
-3.18682e-06
-4.96393e-06
-3.39098e-06
-4.71156e-06
-3.55414e-06
-4.41276e-06
-3.68142e-06
-4.08461e-06
-3.77823e-06
-3.74048e-06
-3.84988e-06
-3.39047e-06
-3.9013e-06
-3.04188e-06
-3.93688e-06
-2.69969e-06
-3.96049e-06
-2.36699e-06
-3.97537e-06
-2.04532e-06
-3.98428e-06
-1.73502e-06
-3.98946e-06
-1.43547e-06
-3.99271e-06
-1.14531e-06
-3.99548e-06
-8.62635e-07
-3.99882e-06
-5.8509e-07
-4.0035e-06
-3.1004e-07
-4.00995e-06
-3.46432e-08
-4.0183e-06
2.44045e-07
-4.02838e-06
5.28983e-07
-4.0396e-06
8.23043e-07
-4.051e-06
1.1289e-06
-4.0611e-06
1.44888e-06
-4.06785e-06
1.78481e-06
-4.06852e-06
2.13779e-06
-4.0596e-06
2.5079e-06
-4.0367e-06
2.89389e-06
-3.9945e-06
3.29274e-06
-3.92675e-06
3.69914e-06
-3.82639e-06
4.10498e-06
-3.68582e-06
4.49864e-06
-3.4975e-06
4.86442e-06
-3.25473e-06
5.18197e-06
-2.95299e-06
5.42596e-06
-2.59159e-06
5.56617e-06
-2.17574e-06
5.56822e-06
-1.71879e-06
5.39512e-06
-1.24414e-06
5.01005e-06
-7.86347e-07
4.38013e-06
-3.90634e-07
3.481e-06
-1.10085e-07
2.3014e-06
8.48503e-07
-8.70888e-08
-7.11246e-07
-3.141e-07
-1.92381e-06
-6.42693e-07
-2.91285e-06
-1.03551e-06
-3.67913e-06
-1.45968e-06
-4.23473e-06
-1.8886e-06
-4.59938e-06
-2.30243e-06
-4.79752e-06
-2.68771e-06
-4.85564e-06
-3.03643e-06
-4.80006e-06
-3.34492e-06
-4.65544e-06
-3.61267e-06
-4.44381e-06
-3.84132e-06
-4.1841e-06
-4.03391e-06
-3.89202e-06
-4.19416e-06
-3.58022e-06
-4.3261e-06
-3.25853e-06
-4.43371e-06
-2.93428e-06
-4.52072e-06
-2.61268e-06
-4.59054e-06
-2.29716e-06
-4.64618e-06
-1.98967e-06
-4.69024e-06
-1.69096e-06
-4.72489e-06
-1.40082e-06
-4.75193e-06
-1.11828e-06
-4.77276e-06
-8.41801e-07
-4.78846e-06
-5.69398e-07
-4.79973e-06
-2.98769e-07
-4.80696e-06
-2.74142e-08
-4.81018e-06
2.47268e-07
-4.80907e-06
5.27872e-07
-4.8029e-06
8.16877e-07
-4.79053e-06
1.11652e-06
-4.7703e-06
1.42865e-06
-4.74002e-06
1.75454e-06
-4.69692e-06
2.09468e-06
-4.63752e-06
2.44851e-06
-4.55773e-06
2.8141e-06
-4.45274e-06
3.18775e-06
-4.31723e-06
3.56363e-06
-4.14551e-06
3.93326e-06
-3.93191e-06
4.28505e-06
-3.67141e-06
4.60392e-06
-3.36042e-06
4.87097e-06
-2.99792e-06
5.06346e-06
-2.58687e-06
5.15513e-06
-2.13572e-06
5.11706e-06
-1.6599e-06
4.9193e-06
-1.18298e-06
4.53313e-06
-7.36932e-07
3.93409e-06
-3.61255e-07
3.10532e-06
-1.00492e-07
2.04063e-06
7.48011e-07
-8.158e-08
-6.29666e-07
-2.96907e-07
-1.70849e-06
-6.13375e-07
-2.59638e-06
-9.98798e-07
-3.2937e-06
-1.42406e-06
-3.80947e-06
-1.86462e-06
-4.15883e-06
-2.30113e-06
-4.36102e-06
-2.7194e-06
-4.43736e-06
-3.10988e-06
-4.40958e-06
-3.46689e-06
-4.29843e-06
-3.78779e-06
-4.12291e-06
-4.07219e-06
-3.89969e-06
-4.32128e-06
-3.64293e-06
-4.53724e-06
-3.36427e-06
-4.7228e-06
-3.07297e-06
-4.88095e-06
-2.77612e-06
-5.01469e-06
-2.47894e-06
-5.12688e-06
-2.18497e-06
-5.22014e-06
-1.89641e-06
-5.29681e-06
-1.61429e-06
-5.35889e-06
-1.33874e-06
-5.40806e-06
-1.06911e-06
-5.44564e-06
-8.04222e-07
-5.47262e-06
-5.42416e-07
-5.48965e-06
-2.8174e-07
-5.49702e-06
-2.00414e-08
-5.49468e-06
2.44923e-07
-5.48218e-06
5.15375e-07
-5.4587e-06
7.93396e-07
-5.42298e-06
1.0808e-06
-5.3733e-06
1.37898e-06
-5.30749e-06
1.68872e-06
-5.22283e-06
2.01002e-06
-5.11613e-06
2.34181e-06
-4.98371e-06
2.68169e-06
-4.82154e-06
3.02558e-06
-4.62534e-06
3.36743e-06
-4.39088e-06
3.6988e-06
-4.11442e-06
4.00859e-06
-3.79324e-06
4.28274e-06
-3.42644e-06
4.50417e-06
-3.01586e-06
4.65288e-06
-2.56718e-06
4.70645e-06
-2.09102e-06
4.64091e-06
-1.60389e-06
4.43218e-06
-1.12876e-06
4.058e-06
-6.94931e-07
3.50026e-06
-3.36985e-07
2.74737e-06
-9.27321e-08
1.79638e-06
6.55279e-07
-7.74067e-08
-5.52259e-07
-2.83722e-07
-1.50217e-06
-5.90552e-07
-2.28955e-06
-9.69654e-07
-2.9146e-06
-1.39494e-06
-3.38419e-06
-1.84371e-06
-3.71005e-06
-2.29734e-06
-3.90739e-06
-2.74135e-06
-3.99335e-06
-3.16519e-06
-3.98574e-06
-3.56175e-06
-3.90188e-06
-3.92674e-06
-3.75792e-06
-4.25811e-06
-3.56832e-06
-4.55548e-06
-3.34556e-06
-4.81963e-06
-3.10012e-06
-5.0521e-06
-2.84049e-06
-5.25493e-06
-2.5733e-06
-5.43033e-06
-2.30354e-06
-5.58056e-06
-2.03474e-06
-5.7078e-06
-1.76917e-06
-5.81404e-06
-1.50805e-06
-5.90105e-06
-1.25172e-06
-5.97032e-06
-9.99849e-07
-6.02303e-06
-7.51514e-07
-6.06005e-06
-5.05392e-07
-6.08193e-06
-2.59858e-07
-6.08888e-06
-1.3098e-08
-6.08073e-06
2.36776e-07
-6.05697e-06
4.9162e-07
-6.01671e-06
7.53136e-07
-5.95866e-06
1.02274e-06
-5.88111e-06
1.30143e-06
-5.78199e-06
1.5896e-06
-5.6588e-06
1.88684e-06
-5.50873e-06
2.19174e-06
-5.32869e-06
2.50164e-06
-5.11544e-06
2.81234e-06
-4.86586e-06
3.11784e-06
-4.57717e-06
3.41011e-06
-4.24738e-06
3.6788e-06
-3.87586e-06
3.91121e-06
-3.46393e-06
4.09224e-06
-3.01569e-06
4.20465e-06
-2.53882e-06
4.22958e-06
-2.04532e-06
4.1474e-06
-1.55209e-06
3.93895e-06
-1.08114e-06
3.58705e-06
-6.59226e-07
3.07834e-06
-3.16817e-07
2.40497e-06
-8.63917e-08
1.56595e-06
5.68888e-07
-7.42368e-08
-4.78023e-07
-2.73611e-07
-1.3028e-06
-5.72854e-07
-1.99031e-06
-9.4672e-07
-2.54074e-06
-1.37153e-06
-2.95937e-06
-1.8262e-06
-3.25538e-06
-2.29284e-06
-3.44075e-06
-2.75695e-06
-3.52924e-06
-3.20739e-06
-3.5353e-06
-3.636e-06
-3.47326e-06
-4.03727e-06
-3.35666e-06
-4.4078e-06
-3.19779e-06
-4.7459e-06
-3.00747e-06
-5.05114e-06
-2.79488e-06
-5.32403e-06
-2.5676e-06
-5.56566e-06
-2.33167e-06
-5.77751e-06
-2.09169e-06
-5.96123e-06
-1.85102e-06
-6.11853e-06
-1.61187e-06
-6.25103e-06
-1.37555e-06
-6.3602e-06
-1.14256e-06
-6.4473e-06
-9.12745e-07
-6.51335e-06
-6.85461e-07
-6.55909e-06
-4.5966e-07
-6.58492e-06
-2.34021e-07
-6.59097e-06
-7.05195e-09
-6.57699e-06
2.22799e-07
-6.54242e-06
4.57045e-07
-6.48632e-06
6.97039e-07
-6.40743e-06
9.43853e-07
-6.30414e-06
1.19814e-06
-6.17453e-06
1.45999e-06
-6.01642e-06
1.72873e-06
-5.82744e-06
2.00276e-06
-5.60513e-06
2.27933e-06
-5.34714e-06
2.55435e-06
-5.05143e-06
2.82213e-06
-4.71659e-06
3.07526e-06
-4.34223e-06
3.30444e-06
-3.92946e-06
3.49844e-06
-3.48145e-06
3.64423e-06
-3.00403e-06
3.72723e-06
-2.50629e-06
3.73184e-06
-2.00107e-06
3.64218e-06
-1.50524e-06
3.44312e-06
-1.03972e-06
3.12153e-06
-6.28961e-07
2.66758e-06
-3.0003e-07
2.07603e-06
-8.11856e-08
1.34711e-06
4.87702e-07
-7.18307e-08
-4.06192e-07
-2.65882e-07
-1.10875e-06
-5.59207e-07
-1.69699e-06
-9.28844e-07
-2.1711e-06
-1.35302e-06
-2.5352e-06
-1.81198e-06
-2.79642e-06
-2.28854e-06
-2.96419e-06
-2.76834e-06
-3.04943e-06
-3.23988e-06
-3.06377e-06
-3.69429e-06
-3.01885e-06
-4.1251e-06
-2.92584e-06
-4.52789e-06
-2.795e-06
-4.89989e-06
-2.63547e-06
-5.23966e-06
-2.45511e-06
-5.54676e-06
-2.2605e-06
-5.82149e-06
-2.05694e-06
-6.06462e-06
-1.84856e-06
-6.27724e-06
-1.6384e-06
-6.46057e-06
-1.42854e-06
-6.61586e-06
-1.22026e-06
-6.74428e-06
-1.01414e-06
-6.84685e-06
-8.10173e-07
-6.9244e-06
-6.07915e-07
-6.9775e-06
-4.06563e-07
-7.00645e-06
-2.05069e-07
-7.01126e-06
-2.23764e-09
-6.99164e-06
2.03176e-07
-6.94697e-06
4.12373e-07
-6.87632e-06
6.26397e-07
-6.7785e-06
8.46029e-07
-6.65202e-06
1.07166e-06
-6.49518e-06
1.30315e-06
-6.30614e-06
1.53969e-06
-6.08301e-06
1.77963e-06
-5.82399e-06
2.02032e-06
-5.52757e-06
2.25792e-06
-5.19272e-06
2.48729e-06
-4.81927e-06
2.70181e-06
-4.4082e-06
2.89337e-06
-3.96209e-06
3.05233e-06
-3.48557e-06
3.16771e-06
-2.98579e-06
3.22745e-06
-2.47282e-06
3.21886e-06
-1.95993e-06
3.12929e-06
-1.46377e-06
2.94696e-06
-1.00413e-06
2.66189e-06
-6.03486e-07
2.26694e-06
-2.86105e-07
1.75865e-06
-7.69149e-08
1.13792e-06
4.10787e-07
-7.00135e-08
-3.36179e-07
-2.60012e-07
-9.18747e-07
-5.48778e-07
-1.40822e-06
-9.15078e-07
-1.8048e-06
-1.33861e-06
-2.11166e-06
-1.80072e-06
-2.33431e-06
-2.28486e-06
-2.48006e-06
-2.77685e-06
-2.55744e-06
-3.26498e-06
-2.57563e-06
-3.73991e-06
-2.54392e-06
-4.19448e-06
-2.47127e-06
-4.62344e-06
-2.36604e-06
-5.02318e-06
-2.23573e-06
-5.3914e-06
-2.08688e-06
-5.72691e-06
-1.92499e-06
-6.02928e-06
-1.75458e-06
-6.29867e-06
-1.57917e-06
-6.53565e-06
-1.40142e-06
-6.741e-06
-1.22319e-06
-6.9156e-06
-1.04566e-06
-7.06033e-06
-8.69408e-07
-7.17598e-06
-6.94527e-07
-7.26317e-06
-5.20722e-07
-7.32233e-06
-3.47399e-07
-7.35365e-06
-1.7375e-07
-7.35705e-06
1.1578e-09
-7.33216e-06
1.78292e-07
-7.27837e-06
3.58578e-07
-7.19477e-06
5.42796e-07
-7.08023e-06
7.31491e-07
-6.93343e-06
9.24858e-07
-6.75291e-06
1.12263e-06
-6.53719e-06
1.32396e-06
-6.28484e-06
1.52728e-06
-5.99468e-06
1.73016e-06
-5.66596e-06
1.92921e-06
-5.29861e-06
2.11993e-06
-4.89347e-06
2.29668e-06
-4.4527e-06
2.4526e-06
-3.98008e-06
2.57971e-06
-3.48137e-06
2.66901e-06
-2.96469e-06
2.71077e-06
-2.44077e-06
2.69494e-06
-1.92309e-06
2.61162e-06
-1.42794e-06
2.45181e-06
-9.74088e-07
2.20803e-06
-5.82321e-07
1.87517e-06
-2.74671e-07
1.451e-06
-7.34391e-08
9.36688e-07
3.37348e-07
-6.86571e-08
-2.67522e-07
-2.55613e-07
-7.31791e-07
-5.40926e-07
-1.12291e-06
-9.04656e-07
-1.44107e-06
-1.32764e-06
-1.68868e-06
-1.79207e-06
-1.86988e-06
-2.28193e-06
-1.9902e-06
-2.78326e-06
-2.05611e-06
-3.28425e-06
-2.07464e-06
-3.77523e-06
-2.05294e-06
-4.24852e-06
-1.99798e-06
-4.69825e-06
-1.91631e-06
-5.12016e-06
-1.81383e-06
-5.51128e-06
-1.69576e-06
-5.86976e-06
-1.56651e-06
-6.1946e-06
-1.42974e-06
-6.48543e-06
-1.28833e-06
-6.74236e-06
-1.14449e-06
-6.96579e-06
-9.99769e-07
-7.15626e-06
-8.55184e-07
-7.3144e-06
-7.11269e-07
-7.44077e-06
-5.6816e-07
-7.53581e-06
-4.25674e-07
-7.59983e-06
-2.83386e-07
-7.63288e-06
-1.40696e-07
-7.63482e-06
3.0963e-09
-7.60525e-06
1.48717e-07
-7.54352e-06
2.96851e-07
-7.44878e-06
4.48061e-07
-7.32e-06
6.02707e-07
-7.156e-06
7.60858e-07
-6.95557e-06
9.222e-07
-6.71754e-06
1.08593e-06
-6.44093e-06
1.25068e-06
-6.12513e-06
1.41436e-06
-5.77005e-06
1.57412e-06
-5.37638e-06
1.72627e-06
-4.94589e-06
1.86619e-06
-4.48166e-06
1.98837e-06
-3.9884e-06
2.08645e-06
-3.47275e-06
2.15336e-06
-2.94352e-06
2.18155e-06
-2.41188e-06
2.16329e-06
-1.89138e-06
2.09113e-06
-1.39791e-06
1.95833e-06
-9.49347e-07
1.75947e-06
-5.65111e-07
1.49093e-06
-2.65458e-07
1.15135e-06
-7.06587e-08
7.41888e-07
2.6669e-07
-6.76679e-08
-1.99854e-07
-2.52395e-07
-5.47063e-07
-5.35164e-07
-8.40137e-07
-8.96981e-07
-1.07925e-06
-1.31952e-06
-1.26614e-06
-1.78564e-06
-1.40376e-06
-2.27974e-06
-1.49609e-06
-2.78806e-06
-1.5478e-06
-3.29874e-06
-1.56396e-06
-3.80188e-06
-1.5498e-06
-4.28946e-06
-1.51041e-06
-4.75515e-06
-1.45062e-06
-5.19417e-06
-1.37481e-06
-5.60306e-06
-1.28687e-06
-5.97945e-06
-1.19012e-06
-6.32187e-06
-1.08732e-06
-6.62953e-06
-9.80671e-07
-6.90216e-06
-8.71856e-07
-7.13984e-06
-7.62092e-07
-7.34284e-06
-6.52178e-07
-7.51156e-06
-5.42554e-07
-7.64636e-06
-4.33358e-07
-7.74755e-06
-3.24486e-07
-7.81529e-06
-2.15648e-07
-7.84956e-06
-1.06425e-07
-7.85014e-06
3.6806e-09
-7.81661e-06
1.15184e-07
-7.74832e-06
2.28564e-07
-7.64447e-06
3.44205e-07
-7.50409e-06
4.62331e-07
-7.32617e-06
5.82941e-07
-7.10971e-06
7.05737e-07
-6.85383e-06
8.30053e-07
-6.55793e-06
9.54774e-07
-6.22184e-06
1.07827e-06
-5.84606e-06
1.19833e-06
-5.43191e-06
1.31212e-06
-4.98185e-06
1.41613e-06
-4.49969e-06
1.50621e-06
-3.99086e-06
1.57762e-06
-3.46266e-06
1.62515e-06
-2.92437e-06
1.64326e-06
-2.38744e-06
1.62636e-06
-1.8654e-06
1.56909e-06
-1.37378e-06
1.46671e-06
-9.29733e-07
1.31542e-06
-5.51599e-07
1.1128e-06
-2.58277e-07
8.58028e-07
-6.85034e-08
5.52114e-07
1.98186e-07
-6.69788e-08
-1.32876e-07
-2.50149e-07
-3.63893e-07
-5.31134e-07
-5.59153e-07
-8.91598e-07
-7.1879e-07
-1.31382e-06
-8.4392e-07
-1.78112e-06
-9.36465e-07
-2.27822e-06
-9.98986e-07
-2.79151e-06
-1.03451e-06
-3.30912e-06
-1.04635e-06
-3.82102e-06
-1.0379e-06
-4.31892e-06
-1.01251e-06
-4.79619e-06
-9.73342e-07
-5.24769e-06
-9.23311e-07
-5.66957e-06
-8.64988e-07
-6.05911e-06
-8.00589e-07
-6.41447e-06
-7.31961e-07
-6.73455e-06
-6.60588e-07
-7.0188e-06
-5.87611e-07
-7.26703e-06
-5.1386e-07
-7.47932e-06
-4.39888e-07
-7.65587e-06
-3.66005e-07
-7.7969e-06
-2.92322e-07
-7.9026e-06
-2.18785e-07
-7.97304e-06
-1.45216e-07
-8.00811e-06
-7.13483e-08
-8.00757e-06
3.13431e-09
-7.97094e-06
7.85605e-08
-7.89761e-06
1.55233e-07
-7.7868e-06
2.33389e-07
-7.63762e-06
3.13155e-07
-7.44918e-06
3.94504e-07
-7.22065e-06
4.77209e-07
-6.95139e-06
5.60792e-07
-6.64109e-06
6.44475e-07
-6.28996e-06
7.27135e-07
-5.89889e-06
8.07265e-07
-5.46971e-06
8.8294e-07
-5.00539e-06
9.5181e-07
-4.51029e-06
1.0111e-06
-3.99035e-06
1.05768e-06
-3.4533e-06
1.0881e-06
-2.90877e-06
1.09873e-06
-2.36836e-06
1.08595e-06
-1.84558e-06
1.04631e-06
-1.35563e-06
9.76758e-07
-9.1512e-07
8.74917e-07
-5.41604e-07
7.39283e-07
-2.52993e-07
5.69417e-07
-6.69241e-08
3.66045e-07
1.31262e-07
-6.65434e-08
-6.63324e-08
-2.48728e-07
-1.81707e-07
-5.2858e-07
-2.79302e-07
-8.88184e-07
-3.59185e-07
-1.3102e-06
-4.21909e-07
-1.77825e-06
-4.68415e-07
-2.27727e-06
-4.99961e-07
-2.79375e-06
-5.18037e-07
-3.31583e-06
-5.2427e-07
-3.83339e-06
-5.2034e-07
-4.33799e-06
-5.07901e-07
-4.82281e-06
-4.88529e-07
-5.28245e-06
-4.63666e-07
-5.71284e-06
-4.34597e-07
-6.111e-06
-4.0243e-07
-6.47487e-06
-3.6809e-07
-6.80314e-06
-3.32324e-07
-7.09504e-06
-2.95707e-07
-7.35024e-06
-2.58661e-07
-7.56866e-06
-2.21467e-07
-7.75038e-06
-1.84287e-07
-7.89552e-06
-1.4718e-07
-8.00418e-06
-1.10125e-07
-8.07636e-06
-7.30371e-08
-8.11192e-06
-3.57873e-08
-8.11056e-06
1.778e-09
-8.07182e-06
3.98185e-08
-7.99507e-06
7.84806e-08
-7.87956e-06
1.17877e-07
-7.72446e-06
1.58063e-07
-7.52898e-06
1.99019e-07
-7.29239e-06
2.40621e-07
-7.01422e-06
2.82621e-07
-6.69436e-06
3.24619e-07
-6.33327e-06