/*--------------------------------*- C++ -*----------------------------------*\
  =========                 |
  \\      /  F ield         | OpenFOAM: The Open Source CFD Toolbox
   \\    /   O peration     | Website:  https://openfoam.org
    \\  /    A nd           | Version:  7
     \\/     M anipulation  |
\*---------------------------------------------------------------------------*/
FoamFile
{
    version     2.0;
    format      ascii;
    class       volVectorField;
    location    "0.0512";
    object      U;
}
// * * * * * * * * * * * * * * * * * * * * * * * * * * * * * * * * * * * * * //

dimensions      [0 1 -1 0 0 0 0];

internalField   nonuniform List<vector> 
2500
(
(0.290246 -0.152407 0)
(0.389521 -0.128228 0)
(0.565401 -0.0747294 0)
(0.683228 -0.0422311 0)
(0.752829 -0.024532 0)
(0.797858 -0.0148933 0)
(0.829047 -0.00958744 0)
(0.851547 -0.00656526 0)
(0.868385 -0.00474192 0)
(0.881382 -0.0035675 0)
(0.891647 -0.00276378 0)
(0.899887 -0.00218535 0)
(0.906579 -0.00175234 0)
(0.91206 -0.00141833 0)
(0.916572 -0.00115468 0)
(0.920297 -0.000942718 0)
(0.923376 -0.000769667 0)
(0.925914 -0.000626402 0)
(0.927997 -0.000506171 0)
(0.92969 -0.000403816 0)
(0.931046 -0.000315279 0)
(0.932105 -0.000237267 0)
(0.932898 -0.000167033 0)
(0.933446 -0.000102207 0)
(0.933766 -4.06839e-05 0)
(0.933864 1.9493e-05 0)
(0.933744 8.03585e-05 0)
(0.933401 0.00014372 0)
(0.932822 0.00021161 0)
(0.931991 0.000286286 0)
(0.93088 0.000370324 0)
(0.929454 0.000466802 0)
(0.927666 0.00057952 0)
(0.925458 0.000713329 0)
(0.922749 0.000874623 0)
(0.919441 0.00107208 0)
(0.915402 0.0013179 0)
(0.910458 0.00162985 0)
(0.904373 0.00203499 0)
(0.896823 0.00257678 0)
(0.887341 0.00332923 0)
(0.875233 0.00442666 0)
(0.859411 0.0061277 0)
(0.838074 0.00895307 0)
(0.808169 0.0139627 0)
(0.764426 0.0232485 0)
(0.695911 0.0407727 0)
(0.57794 0.0737471 0)
(0.398044 0.128743 0)
(0.293866 0.153783 0)
(0.00107997 -0.294876 0)
(0.0168424 -0.2986 0)
(0.152306 -0.213013 0)
(0.28285 -0.14533 0)
(0.38804 -0.0996544 0)
(0.47129 -0.0698368 0)
(0.536754 -0.0504924 0)
(0.588281 -0.0376984 0)
(0.629211 -0.0289432 0)
(0.662101 -0.0227249 0)
(0.688813 -0.0181533 0)
(0.710703 -0.0146903 0)
(0.728769 -0.0120005 0)
(0.743759 -0.00986774 0)
(0.756238 -0.00814723 0)
(0.766645 -0.00673878 0)
(0.775321 -0.00557062 0)
(0.782535 -0.0045898 0)
(0.788503 -0.00375607 0)
(0.793395 -0.00303805 0)
(0.797346 -0.00241058 0)
(0.800464 -0.00185292 0)
(0.802829 -0.00134751 0)
(0.804501 -0.000879008 0)
(0.805521 -0.000433567 0)
(0.805913 1.78031e-06 0)
(0.805682 0.000439742 0)
(0.804815 0.000892997 0)
(0.803285 0.001375 0)
(0.801042 0.00190051 0)
(0.798018 0.00248635 0)
(0.794119 0.00315235 0)
(0.789224 0.0039227 0)
(0.783174 0.00482777 0)
(0.77577 0.00590679 0)
(0.766753 0.00721182 0)
(0.755793 0.0088139 0)
(0.74246 0.0108127 0)
(0.726186 0.0133526 0)
(0.706216 0.0166498 0)
(0.681521 0.02104 0)
(0.650687 0.027065 0)
(0.611736 0.0356299 0)
(0.561896 0.0482865 0)
(0.497437 0.067694 0)
(0.413897 0.0981555 0)
(0.306374 0.145783 0)
(0.170541 0.217303 0)
(0.0269042 0.307194 0)
(0.00518426 0.303004 0)
(-0.0329207 -0.250369 0)
(-0.0615903 -0.344029 0)
(-0.0114799 -0.310597 0)
(0.0708542 -0.251553 0)
(0.158998 -0.196038 0)
(0.241562 -0.151476 0)
(0.314191 -0.117777 0)
(0.376188 -0.0926764 0)
(0.428451 -0.0738797 0)
(0.472329 -0.0596089 0)
(0.509158 -0.0485913 0)
(0.540114 -0.0399389 0)
(0.566177 -0.0330343 0)
(0.588153 -0.0274441 0)
(0.606694 -0.0228592 0)
(0.62233 -0.0190542 0)
(0.635492 -0.0158617 0)
(0.646532 -0.0131542 0)
(0.655734 -0.0108325 0)
(0.663332 -0.00881734 0)
(0.669511 -0.00704432 0)
(0.674421 -0.00545943 0)
(0.678177 -0.00401633 0)
(0.680865 -0.00267402 0)
(0.682542 -0.00139517 0)
(0.683242 -0.000144574 0)
(0.682971 0.0011121 0)
(0.681714 0.00240974 0)
(0.679427 0.00378504 0)
(0.676041 0.00527805 0)
(0.671454 0.0069341 0)
(0.665534 0.00880614 0)
(0.658106 0.010958 0)
(0.648948 0.0134685 0)
(0.637784 0.0164381 0)
(0.624261 0.0199967 0)
(0.607943 0.0243175 0)
(0.588277 0.0296354 0)
(0.564568 0.0362758 0)
(0.535937 0.0446993 0)
(0.501284 0.0555683 0)
(0.459248 0.0698469 0)
(0.40821 0.0889381 0)
(0.346419 0.11484 0)
(0.272444 0.150198 0)
(0.186414 0.197774 0)
(0.0923612 0.258106 0)
(0.0018991 0.32334 0)
(-0.0569134 0.361558 0)
(-0.0321678 0.263989 0)
(-0.0267687 -0.190604 0)
(-0.0654112 -0.333001 0)
(-0.0645069 -0.351515 0)
(-0.0274147 -0.319284 0)
(0.029757 -0.272047 0)
(0.0939279 -0.225521 0)
(0.157408 -0.185183 0)
(0.216395 -0.151941 0)
(0.269369 -0.125065 0)
(0.316038 -0.103428 0)
(0.356698 -0.085949 0)
(0.391891 -0.0717309 0)
(0.422226 -0.060067 0)
(0.448295 -0.0504133 0)
(0.470636 -0.0423528 0)
(0.489727 -0.0355641 0)
(0.505978 -0.0297969 0)
(0.519738 -0.0248535 0)
(0.531305 -0.0205749 0)
(0.540926 -0.0168312 0)
(0.548804 -0.0135139 0)
(0.555104 -0.0105307 0)
(0.559955 -0.00780052 0)
(0.563455 -0.00525112 0)
(0.565668 -0.0028157 0)
(0.566632 -0.000430825 0)
(0.566353 0.00196578 0)
(0.564811 0.00443739 0)
(0.561953 0.00705048 0)
(0.557696 0.00987726 0)
(0.551922 0.0129987 0)
(0.544475 0.0165084 0)
(0.535155 0.0205174 0)
(0.523714 0.0251604 0)
(0.509845 0.030605 0)
(0.493175 0.0370629 0)
(0.473252 0.0448067 0)
(0.449539 0.0541917 0)
(0.4214 0.0656859 0)
(0.388102 0.0799095 0)
(0.348844 0.0976814 0)
(0.302824 0.120063 0)
(0.249413 0.148364 0)
(0.188529 0.184018 0)
(0.121332 0.228096 0)
(0.0514973 0.279919 0)
(-0.0129312 0.333746 0)
(-0.0577328 0.372281 0)
(-0.0646469 0.35597 0)
(-0.0272813 0.204817 0)
(-0.0178433 -0.149169 0)
(-0.0530855 -0.302949 0)
(-0.0735777 -0.35492 0)
(-0.0665122 -0.350317 0)
(-0.0373047 -0.319678 0)
(0.00483192 -0.280358 0)
(0.0526897 -0.24094 0)
(0.101506 -0.205041 0)
(0.148439 -0.173774 0)
(0.191986 -0.14711 0)
(0.231494 -0.124573 0)
(0.26681 -0.10557 0)
(0.298052 -0.0895232 0)
(0.325476 -0.0759271 0)
(0.349396 -0.0643535 0)
(0.370137 -0.054448 0)
(0.388013 -0.0459175 0)
(0.403309 -0.0385196 0)
(0.416284 -0.0320515 0)
(0.42716 -0.0263418 0)
(0.436126 -0.0212433 0)
(0.443339 -0.0166274 0)
(0.448924 -0.0123795 0)
(0.452976 -0.00839515 0)
(0.455558 -0.00457673 0)
(0.456704 -0.000830553 0)
(0.45642 0.00293588 0)
(0.45468 0.00681668 0)
(0.451428 0.0109105 0)
(0.446575 0.0153238 0)
(0.439998 0.0201747 0)
(0.431538 0.0255978 0)
(0.420995 0.0317495 0)
(0.408126 0.0388161 0)
(0.392642 0.0470219 0)
(0.374206 0.056642 0)
(0.352435 0.0680156 0)
(0.326905 0.0815631 0)
(0.297168 0.0978041 0)
(0.262799 0.117371 0)
(0.223467 0.141005 0)
(0.179085 0.169515 0)
(0.130057 0.203624 0)
(0.0776943 0.243604 0)
(0.0248033 0.28848 0)
(-0.023534 0.334428 0)
(-0.0592889 0.371899 0)
(-0.0718803 0.381303 0)
(-0.054298 0.32824 0)
(-0.0186383 0.162499 0)
(-0.0114214 -0.120923 0)
(-0.0402406 -0.269984 0)
(-0.0677928 -0.340203 0)
(-0.0776912 -0.357402 0)
(-0.0688232 -0.344131 0)
(-0.0459816 -0.315882 0)
(-0.0143495 -0.282038 0)
(0.0218062 -0.247747 0)
(0.0593715 -0.215539 0)
(0.0962831 -0.186452 0)
(0.131286 -0.160735 0)
(0.163692 -0.138251 0)
(0.193183 -0.1187 0)
(0.219679 -0.10173 0)
(0.243238 -0.086992 0)
(0.263996 -0.0741629 0)
(0.282129 -0.0629547 0)
(0.297825 -0.0531135 0)
(0.311266 -0.044416 0)
(0.322626 -0.0366657 0)
(0.332055 -0.0296878 0)
(0.339685 -0.0233253 0)
(0.34562 -0.0174348 0)
(0.349942 -0.0118829 0)
(0.352705 -0.00654321 0)
(0.353935 -0.0012931 0)
(0.353634 0.00398929 0)
(0.351773 0.00942814 0)
(0.348296 0.0151532 0)
(0.343117 0.0213032 0)
(0.33612 0.0280306 0)
(0.327158 0.0355053 0)
(0.316052 0.0439214 0)
(0.302594 0.0535028 0)
(0.286547 0.064511 0)
(0.267655 0.0772528 0)
(0.245651 0.0920882 0)
(0.220284 0.109435 0)
(0.191359 0.129765 0)
(0.158797 0.153585 0)
(0.122748 0.181381 0)
(0.0837489 0.213488 0)
(0.042961 0.249839 0)
(0.00248287 0.289479 0)
(-0.0343154 0.329729 0)
(-0.0625867 0.364831 0)
(-0.0762215 0.384018 0)
(-0.0693156 0.369453 0)
(-0.0422668 0.295414 0)
(-0.012177 0.133022 0)
(-0.00746573 -0.100934 0)
(-0.0304133 -0.239732 0)
(-0.0585845 -0.318149 0)
(-0.0768927 -0.350332 0)
(-0.081251 -0.351819 0)
(-0.0731763 -0.335086 0)
(-0.0556872 -0.308887 0)
(-0.031943 -0.278837 0)
(-0.0046753 -0.248273 0)
(0.0240159 -0.219019 0)
(0.05264 -0.191963 0)
(0.080204 -0.167443 0)
(0.106091 -0.145487 0)
(0.12995 -0.125959 0)
(0.151618 -0.108651 0)
(0.171048 -0.093323 0)
(0.188272 -0.0797322 0)
(0.203366 -0.0676452 0)
(0.216428 -0.0568432 0)
(0.227561 -0.0471229 0)
(0.236868 -0.0382961 0)
(0.24444 -0.0301877 0)
(0.250355 -0.0226334 0)
(0.254671 -0.0154771 0)
(0.257427 -0.00856821 0)
(0.258642 -0.00175915 0)
(0.258308 0.00509782 0)
(0.256399 0.0121533 0)
(0.25286 0.0195641 0)
(0.247615 0.0274963 0)
(0.240565 0.0361294 0)
(0.231587 0.0456601 0)
(0.22054 0.0563064 0)
(0.207269 0.0683122 0)
(0.191612 0.0819506 0)
(0.173416 0.097526 0)
(0.152556 0.115372 0)
(0.128971 0.13584 0)
(0.102711 0.159278 0)
(0.0740162 0.185974 0)
(0.0434148 0.216061 0)
(0.011866 0.24934 0)
(-0.0190744 0.284983 0)
(-0.0470882 0.321058 0)
(-0.0690223 0.353823 0)
(-0.0810775 0.376791 0)
(-0.0794572 0.37972 0)
(-0.0619753 0.348057 0)
(-0.0327216 0.263974 0)
(-0.00812162 0.111689 0)
(-0.00512913 -0.0862813 0)
(-0.0235128 -0.213454 0)
(-0.0498457 -0.293973 0)
(-0.0716794 -0.335422 0)
(-0.084041 -0.348154 0)
(-0.0864626 -0.341663 0)
(-0.0802419 -0.323437 0)
(-0.0673701 -0.298863 0)
(-0.0499217 -0.271556 0)
(-0.0297185 -0.243796 0)
(-0.00821301 -0.216933 0)
(0.0135083 -0.191702 0)
(0.0346746 -0.168442 0)
(0.0547661 -0.14725 0)
(0.0734534 -0.128082 0)
(0.090545 -0.11081 0)
(0.105946 -0.0952661 0)
(0.119628 -0.0812624 0)
(0.131601 -0.068605 0)
(0.141902 -0.0571011 0)
(0.150576 -0.046563 0)
(0.157673 -0.036809 0)
(0.163235 -0.0276629 0)
(0.167297 -0.0189534 0)
(0.169879 -0.0105125 0)
(0.170988 -0.00217298 0)
(0.170612 0.00623302 0)
(0.168723 0.014877 0)
(0.165276 0.0239364 0)
(0.160208 0.0335975 0)
(0.153442 0.0440577 0)
(0.14489 0.0555285 0)
(0.134458 0.0682373 0)
(0.122053 0.0824284 0)
(0.107597 0.0983616 0)
(0.0910467 0.116307 0)
(0.0724158 0.136533 0)
(0.0518159 0.159283 0)
(0.0295058 0.184729 0)
(0.00595883 0.212902 0)
(-0.0180538 0.24357 0)
(-0.0413702 0.276047 0)
(-0.0623539 0.30891 0)
(-0.078863 0.339607 0)
(-0.0883607 0.36395 0)
(-0.0882987 0.375583 0)
(-0.0768555 0.36564 0)
(-0.0542451 0.322984 0)
(-0.0258809 0.235772 0)
(-0.00569811 0.0956912 0)
(-0.00373161 -0.0750838 0)
(-0.0187463 -0.190895 0)
(-0.0425969 -0.270045 0)
(-0.0654129 -0.316546 0)
(-0.0823417 -0.337202 0)
(-0.0918942 -0.339023 0)
(-0.0941966 -0.328102 0)
(-0.0902626 -0.309245 0)
(-0.0814796 -0.28598 0)
(-0.0692565 -0.260761 0)
(-0.0548456 -0.235208 0)
(-0.039276 -0.210339 0)
(-0.0233483 -0.186746 0)
(-0.00765841 -0.164736 0)
(0.00736745 -0.144426 0)
(0.0214375 -0.125811 0)
(0.034362 -0.10881 0)
(0.0460252 -0.0932954 0)
(0.0563644 -0.0791129 0)
(0.0653515 -0.0660942 0)
(0.0729807 -0.0540638 0)
(0.0792577 -0.0428436 0)
(0.0841922 -0.0322549 0)
(0.0877925 -0.022119 0)
(0.0900614 -0.0122573 0)
(0.0909933 -0.00249039 0)
(0.0905727 0.0073636 0)
(0.0887736 0.0174901 0)
(0.0855599 0.0280797 0)
(0.0808869 0.0393301 0)
(0.0747044 0.0514469 0)
(0.0669614 0.0646441 0)
(0.0576135 0.0791439 0)
(0.0466331 0.0951733 0)
(0.0340242 0.112958 0)
(0.0198426 0.13271 0)
(0.00422262 0.154608 0)
(-0.0125877 0.17876 0)
(-0.0301827 0.205152 0)
(-0.0479482 0.233561 0)
(-0.0650073 0.263433 0)
(-0.0801768 0.293706 0)
(-0.0919555 0.322573 0)
(-0.0985885 0.347198 0)
(-0.0982736 0.363404 0)
(-0.0895896 0.365458 0)
(-0.0721414 0.346106 0)
(-0.0474678 0.297153 0)
(-0.02107 0.210919 0)
(-0.00423241 0.083198 0)
(-0.00286521 -0.0661609 0)
(-0.0154251 -0.171414 0)
(-0.0368786 -0.247301 0)
(-0.0594624 -0.295923 0)
(-0.0788354 -0.32175 0)
(-0.0930908 -0.329884 0)
(-0.101642 -0.32515 0)
(-0.10478 -0.311644 0)
(-0.103294 -0.292608 0)
(-0.0981651 -0.27046 0)
(-0.0903734 -0.246933 0)
(-0.0808021 -0.22321 0)
(-0.0701946 -0.200064 0)
(-0.0591482 -0.177967 0)
(-0.0481247 -0.157177 0)
(-0.0374701 -0.137802 0)
(-0.0274354 -0.119851 0)
(-0.0181975 -0.103262 0)
(-0.00987699 -0.087928 0)
(-0.00255347 -0.0737144 0)
(0.00372228 -0.0604664 0)
(0.00891835 -0.0480179 0)
(0.0130141 -0.0361955 0)
(0.0159945 -0.0248207 0)
(0.0178456 -0.0137115 0)
(0.0185519 -0.00268281 0)
(0.018095 0.00845391 0)
(0.0164524 0.0198908 0)
(0.0135993 0.0318239 0)
(0.00950995 0.0444537 0)
(0.0041619 0.0579839 0)
(-0.00245843 0.0726202 0)
(-0.0103475 0.0885667 0)
(-0.0194734 0.106019 0)
(-0.0297609 0.125155 0)
(-0.0410723 0.146113 0)
(-0.0531827 0.168971 0)
(-0.065752 0.1937 0)
(-0.0782918 0.220107 0)
(-0.0901339 0.247754 0)
(-0.100406 0.275837 0)
(-0.108029 0.303049 0)
(-0.111757 0.327394 0)
(-0.110293 0.346013 0)
(-0.102525 0.355028 0)
(-0.0879134 0.349526 0)
(-0.0669828 0.323786 0)
(-0.0418765 0.271912 0)
(-0.0176438 0.188994 0)
(-0.00330945 0.0730482 0)
(-0.00230481 -0.0587819 0)
(-0.0130708 -0.154364 0)
(-0.0324533 -0.225993 0)
(-0.0542955 -0.274752 0)
(-0.0748582 -0.303604 0)
(-0.0921512 -0.316256 0)
(-0.1052 -0.316466 0)
(-0.113805 -0.307639 0)
(-0.118288 -0.292631 0)
(-0.119243 -0.273708 0)
(-0.117371 -0.25259 0)
(-0.113369 -0.23053 0)
(-0.107872 -0.208407 0)
(-0.101427 -0.18681 0)
(-0.0944847 -0.166106 0)
(-0.0874044 -0.146501 0)
(-0.0804667 -0.128082 0)
(-0.0738851 -0.110852 0)
(-0.0678188 -0.0947548 0)
(-0.062385 -0.0796913 0)
(-0.0576688 -0.0655335 0)
(-0.0537323 -0.0521335 0)
(-0.0506209 -0.0393292 0)
(-0.0483692 -0.0269488 0)
(-0.0470044 -0.0148133 0)
(-0.0465497 -0.00273843 0)
(-0.0470251 0.00946433 0)
(-0.0484478 0.0219868 0)
(-0.050831 0.0350232 0)
(-0.0541815 0.0487686 0)
(-0.0584954 0.0634165 0)
(-0.0637521 0.079155 0)
(-0.069906 0.0961609 0)
(-0.0768756 0.114589 0)
(-0.0845299 0.134561 0)
(-0.0926718 0.156138 0)
(-0.101019 0.179296 0)
(-0.109183 0.203881 0)
(-0.11665 0.229551 0)
(-0.122768 0.255699 0)
(-0.126745 0.28136 0)
(-0.127678 0.305098 0)
(-0.124622 0.324888 0)
(-0.116723 0.338021 0)
(-0.103444 0.341062 0)
(-0.0848731 0.329941 0)
(-0.0620677 0.300249 0)
(-0.0373494 0.247802 0)
(-0.0151438 0.169493 0)
(-0.00269833 0.0645254 0)
(-0.00192731 -0.0524837 0)
(-0.0113705 -0.139201 0)
(-0.0290481 -0.20607 0)
(-0.049995 -0.253638 0)
(-0.0710342 -0.283901 0)
(-0.090258 -0.29956 0)
(-0.106512 -0.303529 0)
(-0.119288 -0.298589 0)
(-0.128562 -0.287197 0)
(-0.134614 -0.271399 0)
(-0.137888 -0.252823 0)
(-0.138888 -0.23272 0)
(-0.138119 -0.212014 0)
(-0.136044 -0.19136 0)
(-0.133072 -0.171202 0)
(-0.129545 -0.151821 0)
(-0.125748 -0.13337 0)
(-0.121907 -0.115909 0)
(-0.118202 -0.0994271 0)
(-0.114774 -0.0838631 0)
(-0.111732 -0.0691177 0)
(-0.109157 -0.0550645 0)
(-0.107115 -0.0415573 0)
(-0.105653 -0.0284359 0)
(-0.10481 -0.0155297 0)
(-0.104612 -0.00266098 0)
(-0.10508 0.0103531 0)
(-0.106225 0.0236977 0)
(-0.108049 0.0375588 0)
(-0.110541 0.0521193 0)
(-0.113674 0.0675559 0)
(-0.117398 0.0840326 0)
(-0.121635 0.101693 0)
(-0.126265 0.120647 0)
(-0.13112 0.140956 0)
(-0.135966 0.162609 0)
(-0.140495 0.185491 0)
(-0.144308 0.209343 0)
(-0.146912 0.233708 0)
(-0.147718 0.257869 0)
(-0.146061 0.280773 0)
(-0.141245 0.300956 0)
(-0.132623 0.316474 0)
(-0.119725 0.324868 0)
(-0.102454 0.323191 0)
(-0.0813166 0.30815 0)
(-0.0576367 0.276397 0)
(-0.0336872 0.224984 0)
(-0.0132688 0.151967 0)
(-0.00227298 0.0571787 0)
(-0.00166407 -0.0469623 0)
(-0.0101213 -0.125495 0)
(-0.0264274 -0.187372 0)
(-0.0464936 -0.232863 0)
(-0.0676222 -0.263337 0)
(-0.088056 -0.280783 0)
(-0.106586 -0.287456 0)
(-0.122522 -0.285611 0)
(-0.135599 -0.277325 0)
(-0.145855 -0.264399 0)
(-0.153514 -0.248329 0)
(-0.158902 -0.230309 0)
(-0.162388 -0.211258 0)
(-0.164339 -0.191862 0)
(-0.165101 -0.172608 0)
(-0.164981 -0.153826 0)
(-0.164243 -0.135721 0)
(-0.163112 -0.118398 0)
(-0.161773 -0.101887 0)
(-0.160375 -0.0861617 0)
(-0.15904 -0.0711503 0)
(-0.157864 -0.0567498 0)
(-0.156921 -0.0428325 0)
(-0.15627 -0.029253 0)
(-0.155954 -0.0158534 0)
(-0.156002 -0.00246687 0)
(-0.156432 0.0110786 0)
(-0.15725 0.0249568 0)
(-0.158447 0.0393401 0)
(-0.159996 0.0543946 0)
(-0.161853 0.0702752 0)
(-0.163944 0.087118 0)
(-0.166167 0.10503 0)
(-0.16838 0.124078 0)
(-0.170391 0.144266 0)
(-0.171954 0.165519 0)
(-0.17276 0.187646 0)
(-0.172431 0.210309 0)
(-0.170526 0.232974 0)
(-0.16655 0.254865 0)
(-0.159985 0.274907 0)
(-0.150342 0.29168 0)
(-0.137241 0.30339 0)
(-0.120526 0.30787 0)
(-0.100419 0.302652 0)
(-0.0776813 0.285112 0)
(-0.0537377 0.25273 0)
(-0.0307048 0.203442 0)
(-0.0118255 0.13605 0)
(-0.00196358 0.0507132 0)
(-0.0014754 -0.0420109 0)
(-0.00919019 -0.112913 0)
(-0.0244055 -0.169711 0)
(-0.0436774 -0.212529 0)
(-0.0646987 -0.24233 0)
(-0.0858803 -0.260594 0)
(-0.106027 -0.269075 0)
(-0.124351 -0.269591 0)
(-0.140429 -0.263878 0)
(-0.154117 -0.253497 0)
(-0.16546 -0.239787 0)
(-0.174631 -0.223856 0)
(-0.181869 -0.206583 0)
(-0.187444 -0.188651 0)
(-0.191629 -0.170565 0)
(-0.194682 -0.152682 0)
(-0.196836 -0.13524 0)
(-0.1983 -0.11838 0)
(-0.199249 -0.102165 0)
(-0.199834 -0.0865958 0)
(-0.200177 -0.0716289 0)
(-0.200381 -0.0571833 0)
(-0.200524 -0.0431508 0)
(-0.20067 -0.0294032 0)
(-0.200862 -0.0157976 0)
(-0.201132 -0.00218163 0)
(-0.201493 0.0116024 0)
(-0.201944 0.0257131 0)
(-0.202468 0.0403057 0)
(-0.203025 0.0555261 0)
(-0.203557 0.071505 0)
(-0.203976 0.0883492 0)
(-0.204165 0.106131 0)
(-0.203969 0.124873 0)
(-0.203191 0.144534 0)
(-0.201591 0.164984 0)
(-0.198878 0.185976 0)
(-0.194717 0.207119 0)
(-0.188739 0.227838 0)
(-0.180557 0.24734 0)
(-0.169803 0.264578 0)
(-0.156178 0.278225 0)
(-0.13953 0.286672 0)
(-0.119945 0.288055 0)
(-0.0978619 0.280337 0)
(-0.0741857 0.261453 0)
(-0.0503424 0.229516 0)
(-0.0282536 0.183089 0)
(-0.0106889 0.121453 0)
(-0.00173024 0.0449277 0)
(-0.0013373 -0.0374842 0)
(-0.00848822 -0.101202 0)
(-0.0228409 -0.152905 0)
(-0.0414283 -0.192648 0)
(-0.0622548 -0.221124 0)
(-0.0838911 -0.239449 0)
(-0.105189 -0.248992 0)
(-0.12532 -0.251218 0)
(-0.143758 -0.247569 0)
(-0.160227 -0.239378 0)
(-0.174635 -0.227824 0)
(-0.187024 -0.213908 0)
(-0.197519 -0.198451 0)
(-0.206296 -0.182106 0)
(-0.213554 -0.165374 0)
(-0.219497 -0.148621 0)
(-0.22432 -0.132105 0)
(-0.228203 -0.115987 0)
(-0.231306 -0.100354 0)
(-0.23377 -0.0852341 0)
(-0.235714 -0.0706035 0)
(-0.237237 -0.056403 0)
(-0.238418 -0.0425436 0)
(-0.23932 -0.0289149 0)
(-0.239987 -0.015391 0)
(-0.240445 -0.00183592 0)
(-0.240706 0.0118914 0)
(-0.240763 0.025932 0)
(-0.240588 0.0404218 0)
(-0.240137 0.0554851 0)
(-0.23934 0.0712276 0)
(-0.238101 0.0877277 0)
(-0.236296 0.105025 0)
(-0.233771 0.123107 0)
(-0.230336 0.141892 0)
(-0.225767 0.16121 0)
(-0.21981 0.180779 0)
(-0.212186 0.200178 0)
(-0.202606 0.218823 0)
(-0.190794 0.235938 0)
(-0.176522 0.250537 0)
(-0.159661 0.261416 0)
(-0.140241 0.267164 0)
(-0.118527 0.266205 0)
(-0.0951009 0.256881 0)
(-0.0709335 0.237575 0)
(-0.0473991 0.206886 0)
(-0.026221 0.163813 0)
(-0.00977712 0.107948 0)
(-0.00154926 0.0396798 0)
(-0.00123465 -0.0332779 0)
(-0.00795439 -0.0901652 0)
(-0.0216269 -0.136795 0)
(-0.0396407 -0.173189 0)
(-0.0602449 -0.199857 0)
(-0.0821522 -0.217653 0)
(-0.104276 -0.22765 0)
(-0.125776 -0.231028 0)
(-0.146067 -0.228977 0)
(-0.16478 -0.222627 0)
(-0.181717 -0.212997 0)
(-0.196814 -0.200978 0)
(-0.210098 -0.187316 0)
(-0.221661 -0.17262 0)
(-0.231632 -0.157366 0)
(-0.240158 -0.141919 0)
(-0.247391 -0.126537 0)
(-0.253479 -0.111396 0)
(-0.258562 -0.0965987 0)
(-0.262765 -0.0821889 0)
(-0.266195 -0.068163 0)
(-0.268946 -0.0544795 0)
(-0.271092 -0.0410678 0)
(-0.272691 -0.027835 0)
(-0.273784 -0.0146726 0)
(-0.274396 -0.00146193 0)
(-0.27453 0.0119201 0)
(-0.274176 0.0255958 0)
(-0.273301 0.0396811 0)
(-0.271854 0.0542784 0)
(-0.269759 0.0694698 0)
(-0.266921 0.0853074 0)
(-0.263215 0.101803 0)
(-0.258494 0.118915 0)
(-0.252586 0.136534 0)
(-0.245295 0.154462 0)
(-0.236411 0.1724 0)
(-0.225717 0.18992 0)
(-0.213007 0.206452 0)
(-0.198112 0.221264 0)
(-0.18093 0.233452 0)
(-0.161471 0.241949 0)
(-0.13991 0.245541 0)
(-0.116641 0.242914 0)
(-0.0923308 0.23273 0)
(-0.0679696 0.213735 0)
(-0.0448544 0.184886 0)
(-0.0245235 0.145496 0)
(-0.00903533 0.095354 0)
(-0.00140592 0.0348647 0)
(-0.0011575 -0.0293154 0)
(-0.00754598 -0.0796533 0)
(-0.0206836 -0.121246 0)
(-0.0382253 -0.154101 0)
(-0.0586117 -0.178604 0)
(-0.0806764 -0.195411 0)
(-0.103395 -0.205371 0)
(-0.125937 -0.209431 0)
(-0.147682 -0.208569 0)
(-0.168197 -0.203733 0)
(-0.187207 -0.195795 0)
(-0.204561 -0.185531 0)
(-0.220206 -0.173607 0)
(-0.23416 -0.160576 0)
(-0.246487 -0.146881 0)
(-0.257281 -0.132865 0)
(-0.26665 -0.118785 0)
(-0.274711 -0.104817 0)
(-0.281576 -0.0910705 0)
(-0.28735 -0.0776027 0)
(-0.29213 -0.0644235 0)
(-0.295996 -0.0515071 0)
(-0.299016 -0.0387987 0)
(-0.301242 -0.0262224 0)
(-0.302709 -0.0136866 0)
(-0.303436 -0.00109018 0)
(-0.303424 0.0116719 0)
(-0.302656 0.0247033 0)
(-0.301097 0.0381 0)
(-0.298691 0.051944 0)
(-0.295364 0.0662955 0)
(-0.29102 0.0811845 0)
(-0.285543 0.0966005 0)
(-0.2788 0.11248 0)
(-0.270641 0.128696 0)
(-0.260905 0.145039 0)
(-0.24943 0.161205 0)
(-0.236063 0.176779 0)
(-0.220678 0.191223 0)
(-0.203201 0.203865 0)
(-0.18364 0.213901 0)
(-0.162121 0.2204 0)
(-0.138926 0.222334 0)
(-0.114537 0.218623 0)
(-0.0896729 0.208196 0)
(-0.0653103 0.190084 0)
(-0.0426612 0.163517 0)
(-0.0231001 0.128025 0)
(-0.0084262 0.0835229 0)
(-0.00129074 0.0304025 0)
(-0.00109912 -0.0255394 0)
(-0.00723252 -0.0695493 0)
(-0.0199507 -0.106145 0)
(-0.0371094 -0.13533 0)
(-0.0572982 -0.157399 0)
(-0.0794509 -0.172863 0)
(-0.102602 -0.18239 0)
(-0.125938 -0.186744 0)
(-0.148822 -0.18672 0)
(-0.170779 -0.183106 0)
(-0.191473 -0.176638 0)
(-0.210691 -0.167982 0)
(-0.228312 -0.15772 0)
(-0.24429 -0.146342 0)
(-0.258633 -0.134249 0)
(-0.271385 -0.121758 0)
(-0.282615 -0.109108 0)
(-0.292405 -0.0964721 0)
(-0.300841 -0.0839607 0)
(-0.308008 -0.0716362 0)
(-0.313985 -0.0595186 0)
(-0.318842 -0.0475943 0)
(-0.322635 -0.0358225 0)
(-0.32541 -0.0241425 0)
(-0.327195 -0.0124787 0)
(-0.328004 -0.000747 0)
(-0.327833 0.0111404 0)
(-0.326662 0.023269 0)
(-0.324452 0.0357164 0)
(-0.321148 0.0485458 0)
(-0.316677 0.0617989 0)
(-0.310949 0.0754877 0)
(-0.303861 0.0895853 0)
(-0.295296 0.104016 0)
(-0.285131 0.118642 0)
(-0.273242 0.133255 0)
(-0.259516 0.147561 0)
(-0.243859 0.161171 0)
(-0.226222 0.173594 0)
(-0.206613 0.184229 0)
(-0.185133 0.192374 0)
(-0.161997 0.197236 0)
(-0.137569 0.197957 0)
(-0.112391 0.193657 0)
(-0.0872041 0.18349 0)
(-0.0629581 0.166709 0)
(-0.0407809 0.142749 0)
(-0.0219062 0.111294 0)
(-0.00792388 0.0723328 0)
(-0.00119744 0.0262303 0)
(-0.00105481 -0.0219063 0)
(-0.00699197 -0.0597621 0)
(-0.0193828 -0.091399 0)
(-0.0362348 -0.116821 0)
(-0.0562528 -0.136255 0)
(-0.0784521 -0.150101 0)
(-0.101919 -0.158884 0)
(-0.125861 -0.163212 0)
(-0.149634 -0.163731 0)
(-0.172736 -0.161085 0)
(-0.194789 -0.155886 0)
(-0.215528 -0.148696 0)
(-0.23478 -0.140011 0)
(-0.252447 -0.130257 0)
(-0.268487 -0.119788 0)
(-0.282901 -0.108885 0)
(-0.295721 -0.0977667 0)
(-0.306997 -0.0865922 0)
(-0.31679 -0.0754689 0)
(-0.325164 -0.0644599 0)
(-0.33218 -0.0535911 0)
(-0.337896 -0.0428577 0)
(-0.342359 -0.0322309 0)
(-0.345603 -0.0216628 0)
(-0.347652 -0.011093 0)
(-0.348513 -0.00045277 0)
(-0.348179 0.0103292 0)
(-0.346625 0.0213219 0)
(-0.343814 0.0325863 0)
(-0.33969 0.0441694 0)
(-0.334185 0.0560977 0)
(-0.327218 0.0683699 0)
(-0.318697 0.0809488 0)
(-0.308528 0.0937524 0)
(-0.296613 0.106645 0)
(-0.282867 0.119426 0)
(-0.267221 0.131824 0)
(-0.249639 0.143488 0)
(-0.230136 0.153979 0)
(-0.208793 0.162778 0)
(-0.185783 0.169285 0)
(-0.161394 0.172835 0)
(-0.136049 0.172727 0)
(-0.110327 0.168254 0)
(-0.0849748 0.15875 0)
(-0.0609104 0.143649 0)
(-0.0391837 0.122536 0)
(-0.0209096 0.0952016 0)
(-0.00751024 0.0616802 0)
(-0.00112173 0.0222968 0)
(-0.00102126 -0.0183826 0)
(-0.00680824 -0.0502199 0)
(-0.0189458 -0.0769326 0)
(-0.0355558 -0.0985259 0)
(-0.0554315 -0.115176 0)
(-0.0776531 -0.12719 0)
(-0.101351 -0.134982 0)
(-0.125753 -0.139029 0)
(-0.150216 -0.139847 0)
(-0.174219 -0.137953 0)
(-0.197354 -0.133848 0)
(-0.219318 -0.127993 0)
(-0.239895 -0.120803 0)
(-0.258945 -0.112637 0)
(-0.276386 -0.103796 0)
(-0.292182 -0.094525 0)
(-0.306331 -0.0850137 0)
(-0.318857 -0.0754046 0)
(-0.329794 -0.0657956 0)
(-0.339188 -0.0562471 0)
(-0.347085 -0.046787 0)
(-0.353528 -0.0374167 0)
(-0.358554 -0.0281163 0)
(-0.36219 -0.0188498 0)
(-0.364451 -0.00956942 0)
(-0.365341 -0.000220898 0)
(-0.364847 0.00925233 0)
(-0.362945 0.0189043 0)
(-0.359595 0.0287814 0)
(-0.354744 0.0389175 0)
(-0.348331 0.0493273 0)
(-0.340283 0.060001 0)
(-0.330523 0.0708966 0)
(-0.318976 0.0819331 0)
(-0.305572 0.0929829 0)
(-0.29026 0.103864 0)
(-0.273013 0.114335 0)
(-0.253844 0.124088 0)
(-0.232824 0.132749 0)
(-0.210093 0.139877 0)
(-0.185884 0.144975 0)
(-0.160538 0.1475 0)
(-0.13452 0.146887 0)
(-0.108432 0.142579 0)
(-0.0830192 0.134062 0)
(-0.0591631 0.120908 0)
(-0.0378465 0.102817 0)
(-0.0200868 0.079654 0)
(-0.00717248 0.0514746 0)
(-0.00106064 0.0185589 0)
(-0.000996106 -0.014942 0)
(-0.00666956 -0.0408651 0)
(-0.0186141 -0.0626826 0)
(-0.0350367 -0.0804006 0)
(-0.0547979 -0.0941531 0)
(-0.0770285 -0.104176 0)
(-0.100894 -0.110784 0)
(-0.125643 -0.114348 0)
(-0.150633 -0.115267 0)
(-0.175332 -0.113949 0)
(-0.199313 -0.110789 0)
(-0.222242 -0.106156 0)
(-0.243873 -0.100385 0)
(-0.26403 -0.0937683 0)
(-0.282599 -0.0865525 0)
(-0.299514 -0.0789408 0)
(-0.314745 -0.0710935 0)
(-0.32829 -0.0631311 0)
(-0.340165 -0.0551386 0)
(-0.350397 -0.0471698 0)
(-0.359018 -0.0392518 0)
(-0.366058 -0.0313894 0)
(-0.371544 -0.0235697 0)
(-0.375496 -0.0157662 0)
(-0.377924 -0.00794271 0)
(-0.378825 -5.74647e-05 0)
(-0.378184 0.00793293 0)
(-0.375975 0.0160694 0)
(-0.37216 0.0243862 0)
(-0.366689 0.0329063 0)
(-0.359504 0.0416366 0)
(-0.350544 0.0505627 0)
(-0.339746 0.059643 0)
(-0.327053 0.0688032 0)
(-0.31242 0.0779306 0)
(-0.295824 0.0868681 0)
(-0.277278 0.0954104 0)
(-0.256835 0.1033 0)
(-0.234611 0.110229 0)
(-0.210794 0.115838 0)
(-0.185664 0.119728 0)
(-0.1596 0.121469 0)
(-0.133098 0.120618 0)
(-0.106773 0.116748 0)
(-0.0813607 0.10947 0)
(-0.0577122 0.0984668 0)
(-0.0367525 0.0835255 0)
(-0.019421 0.0645612 0)
(-0.00690153 0.041635 0)
(-0.00101211 0.0149795 0)
(-0.000977668 -0.0115634 0)
(-0.00656736 -0.0316512 0)
(-0.0183685 -0.0485968 0)
(-0.0346505 -0.0624065 0)
(-0.0543233 -0.0731793 0)
(-0.0765559 -0.0810887 0)
(-0.100542 -0.0863678 0)
(-0.125545 -0.0892914 0)
(-0.150928 -0.0901582 0)
(-0.176152 -0.0892743 0)
(-0.200773 -0.0869391 0)
(-0.224439 -0.0834346 0)
(-0.246879 -0.0790171 0)
(-0.267891 -0.0739126 0)
(-0.287336 -0.0683139 0)
(-0.305124 -0.0623803 0)
(-0.321201 -0.0562386 0)
(-0.335547 -0.0499855 0)
(-0.348161 -0.0436896 0)
(-0.359053 -0.0373958 0)
(-0.368244 -0.0311275 0)
(-0.375754 -0.0248909 0)
(-0.381602 -0.0186782 0)
(-0.3858 -0.0124706 0)
(-0.388352 -0.00624183 0)
(-0.389253 3.87101e-05 0)
(-0.388485 0.00640286 0)
(-0.386021 0.0128803 0)
(-0.381823 0.0194951 0)
(-0.375846 0.0262622 0)
(-0.368036 0.0331835 0)
(-0.358341 0.0402438 0)
(-0.34671 0.0474061 0)
(-0.333102 0.0546079 0)
(-0.317495 0.061756 0)
(-0.29989 0.0687237 0)
(-0.280328 0.0753466 0)
(-0.258899 0.0814221 0)
(-0.235752 0.0867088 0)
(-0.211114 0.0909298 0)
(-0.185297 0.093779 0)
(-0.15871 0.0949312 0)
(-0.131869 0.0940564 0)
(-0.105395 0.0908372 0)
(-0.0800165 0.0849908 0)
(-0.0565546 0.0762908 0)
(-0.0358895 0.0645897 0)
(-0.0189002 0.0498364 0)
(-0.006691 0.0320875 0)
(-0.000974685 0.0115253 0)
(-0.000964755 -0.00822966 0)
(-0.00649551 -0.0225394 0)
(-0.0181953 -0.0346311 0)
(-0.034377 -0.0445097 0)
(-0.0539856 -0.0522436 0)
(-0.0762172 -0.057952 0)
(-0.100286 -0.0617951 0)
(-0.125468 -0.0639625 0)
(-0.15113 -0.0646613 0)
(-0.176728 -0.0641047 0)
(-0.20181 -0.062502 0)
(-0.226008 -0.0600516 0)
(-0.249035 -0.0569348 0)
(-0.270671 -0.0533121 0)
(-0.290757 -0.0493213 0)
(-0.309185 -0.0450769 0)
(-0.325886 -0.0406706 0)
(-0.340823 -0.0361727 0)
(-0.353983 -0.0316339 0)
(-0.365364 -0.0270874 0)
(-0.374977 -0.0225516 0)
(-0.382835 -0.0180322 0)
(-0.388949 -0.0135245 0)
(-0.393327 -0.0090164 0)
(-0.395967 -0.00449011 0)
(-0.396863 7.52022e-05 0)
(-0.395994 0.00470114 0)
(-0.393333 0.00940769 0)
(-0.388842 0.0142107 0)
(-0.382479 0.0191191 0)
(-0.374195 0.0241325 0)
(-0.363946 0.0292376 0)
(-0.35169 0.0344057 0)
(-0.3374 0.0395893 0)
(-0.321068 0.0447194 0)
(-0.302716 0.0497028 0)
(-0.282409 0.05442 0)
(-0.260259 0.0587247 0)
(-0.236444 0.0624443 0)
(-0.211217 0.0653821 0)
(-0.184914 0.0673225 0)
(-0.157964 0.0680382 0)
(-0.130896 0.0673005 0)
(-0.104335 0.0648915 0)
(-0.0789986 0.060619 0)
(-0.0556879 0.0543318 0)
(-0.0352487 0.0459337 0)
(-0.0185159 0.0353958 0)
(-0.00653646 0.0227629 0)
(-0.000947371 0.008166 0)
(-0.000956559 -0.00492615 0)
(-0.00644979 -0.0134969 0)
(-0.0180848 -0.020747 0)
(-0.0342021 -0.0266797 0)
(-0.0537689 -0.0313352 0)
(-0.0759989 -0.0347831 0)
(-0.10012 -0.0371172 0)
(-0.125416 -0.0384488 0)
(-0.151255 -0.0388995 0)
(-0.177094 -0.038595 0)
(-0.202474 -0.0376594 0)
(-0.227018 -0.0362104 0)
(-0.250427 -0.0343558 0)
(-0.27247 -0.0321917 0)
(-0.292976 -0.0298008 0)
(-0.311824 -0.027252 0)
(-0.328935 -0.0246008 0)
(-0.344262 -0.0218898 0)
(-0.357781 -0.01915 0)
(-0.369485 -0.016402 0)
(-0.379377 -0.0136573 0)
(-0.387464 -0.0109197 0)
(-0.393753 -0.00818716 0)
(-0.398248 -0.00545265 0)
(-0.400945 -0.00270598 0)
(-0.401834 6.49161e-05 0)
(-0.400895 0.00287255 0)
(-0.398099 0.0057284 0)
(-0.393411 0.00864139 0)
(-0.386788 0.0116162 0)
(-0.378187 0.0146518 0)
(-0.367568 0.0177394 0)
(-0.354895 0.0208607 0)
(-0.340151 0.0239863 0)
(-0.323339 0.0270735 0)
(-0.304495 0.0300654 0)
(-0.283698 0.0328897 0)
(-0.261077 0.035458 0)
(-0.236829 0.0376666 0)
(-0.211222 0.0393982 0)
(-0.184609 0.0405244 0)
(-0.157431 0.0409111 0)
(-0.130225 0.0404238 0)
(-0.103615 0.0389352 0)
(-0.0783155 0.036334 0)
(-0.0551108 0.0325333 0)
(-0.0348245 0.0274792 0)
(-0.0182625 0.0211571 0)
(-0.00643493 0.0135955 0)
(-0.0009295 0.00487331 0)
(-0.00095258 -0.00164012 0)
(-0.00642757 -0.00449455 0)
(-0.018031 -0.00691039 0)
(-0.0341169 -0.00888886 0)
(-0.0536631 -0.0104431 0)
(-0.075892 -0.0115962 0)
(-0.100038 -0.0123789 0)
(-0.125389 -0.0128278 0)
(-0.151316 -0.0129833 0)
(-0.177273 -0.0128867 0)
(-0.202798 -0.0125792 0)
(-0.227512 -0.0120997 0)
(-0.25111 -0.0114841 0)
(-0.273353 -0.0107644 0)
(-0.294067 -0.00996806 0)
(-0.313123 -0.00911815 0)
(-0.330438 -0.0082332 0)