/*--------------------------------*- C++ -*----------------------------------*\
  =========                 |
  \\      /  F ield         | OpenFOAM: The Open Source CFD Toolbox
   \\    /   O peration     | Website:  https://openfoam.org
    \\  /    A nd           | Version:  7
     \\/     M anipulation  |
\*---------------------------------------------------------------------------*/
FoamFile
{
    version     2.0;
    format      ascii;
    class       volScalarField;
    location    "0.04";
    object      p;
}
// * * * * * * * * * * * * * * * * * * * * * * * * * * * * * * * * * * * * * //

dimensions      [0 2 -2 0 0 0 0];

internalField   nonuniform List<scalar> 
2500
(
8.22206e-06
-6.51177
-9.29658
-10.492
-11.1568
-11.5626
-11.8256
-12.0097
-12.1468
-12.2533
-12.3385
-12.4081
-12.4658
-12.5143
-12.5553
-12.5902
-12.6201
-12.6456
-12.6676
-12.6865
-12.7028
-12.7168
-12.7289
-12.7394
-12.7487
-12.757
-12.7645
-12.7717
-12.7788
-12.7861
-12.7941
-12.8031
-12.8136
-12.8262
-12.8415
-12.8602
-12.8834
-12.9125
-12.9489
-12.9953
-13.0549
-13.1332
-13.2388
-13.3873
-13.6097
-13.967
-14.5663
-15.6667
-18.3337
-24.7185
-4.95565
-7.67545
-9.18197
-10.1418
-10.8092
-11.2689
-11.59
-11.8229
-11.9978
-12.1331
-12.2404
-12.3272
-12.3986
-12.4581
-12.5082
-12.5508
-12.5873
-12.6186
-12.6457
-12.6692
-12.6897
-12.7077
-12.7236
-12.7378
-12.7506
-12.7625
-12.7737
-12.7846
-12.7956
-12.8071
-12.8195
-12.8333
-12.8492
-12.8678
-12.89
-12.9168
-12.9496
-12.9901
-13.0407
-13.1048
-13.1873
-13.2953
-13.4399
-13.6385
-13.9205
-14.3336
-14.943
-15.8308
-17.2507
-19.8498
-7.92545
-8.75765
-9.55842
-10.2392
-10.7792
-11.189
-11.4983
-11.7347
-11.9184
-12.0636
-12.1804
-12.2757
-12.3546
-12.4206
-12.4764
-12.524
-12.5648
-12.6001
-12.6308
-12.6576
-12.6812
-12.7021
-12.7208
-12.7377
-12.7532
-12.7677
-12.7816
-12.7953
-12.8092
-12.8237
-12.8393
-12.8567
-12.8763
-12.8991
-12.926
-12.958
-12.9968
-13.0442
-13.1027
-13.1759
-13.2686
-13.3875
-13.5422
-13.7464
-14.0195
-14.3879
-14.8798
-15.5074
-16.2529
-17.0162
-9.43529
-9.64832
-10.0671
-10.5119
-10.9047
-11.2317
-11.498
-11.7135
-11.8882
-12.0307
-12.148
-12.2454
-12.3272
-12.3963
-12.4552
-12.5057
-12.5494
-12.5874
-12.6206
-12.6498
-12.6757
-12.6988
-12.7197
-12.7387
-12.7563
-12.7729
-12.789
-12.8048
-12.8209
-12.8377
-12.8558
-12.8757
-12.8981
-12.9238
-12.9537
-12.9891
-13.0313
-13.0822
-13.1442
-13.2203
-13.3146
-13.4321
-13.5797
-13.7658
-14.0001
-14.2919
-14.6469
-15.0525
-15.4345
-15.6123
-10.3212
-10.3202
-10.5238
-10.8004
-11.0749
-11.3249
-11.5434
-11.7302
-11.8882
-12.0215
-12.1342
-12.2297
-12.3112
-12.381
-12.4412
-12.4933
-12.5387
-12.5785
-12.6135
-12.6446
-12.6723
-12.6971
-12.7197
-12.7405
-12.7598
-12.7782
-12.7959
-12.8136
-12.8315
-12.8502
-12.8701
-12.892
-12.9163
-12.944
-12.976
-13.0132
-13.0572
-13.1093
-13.1718
-13.247
-13.3378
-13.4478
-13.581
-13.7414
-13.9322
-14.1532
-14.3984
-14.647
-14.8265
-14.8079
-10.8881
-10.8133
-10.9016
-11.0689
-11.2566
-11.4428
-11.6168
-11.7733
-11.9113
-12.0317
-12.1363
-12.2271
-12.3058
-12.3744
-12.4342
-12.4866
-12.5326
-12.5733
-12.6094
-12.6416
-12.6705
-12.6967
-12.7206
-12.7426
-12.7633
-12.783
-12.8021
-12.8211
-12.8404
-12.8604
-12.8817
-12.9049
-12.9305
-12.9593
-12.9922
-13.0301
-13.0741
-13.1257
-13.1862
-13.2576
-13.3417
-13.4406
-13.5562
-13.6895
-13.8397
-14.0024
-14.1677
-14.315
-14.3882
-14.3063
-11.2704
-11.1787
-11.2085
-11.3072
-11.4335
-11.5697
-11.7051
-11.8332
-11.9508
-12.0568
-12.1514
-12.2353
-12.3096
-12.3753
-12.4334
-12.4849
-12.5307
-12.5715
-12.6079
-12.6407
-12.6703
-12.6972
-12.722
-12.745
-12.7666
-12.7872
-12.8073
-12.8272
-12.8474
-12.8683
-12.8904
-12.9142
-12.9404
-12.9696
-13.0024
-13.0399
-13.0827
-13.1321
-13.1891
-13.2548
-13.3304
-13.4167
-13.5142
-13.622
-13.7376
-13.8549
-13.9641
-14.0487
-14.0694
-13.9764
-11.5437
-11.4556
-11.4563
-11.5126
-11.5964
-11.6949
-11.7989
-11.902
-12.0003
-12.0919
-12.1758
-12.252
-12.3207
-12.3825
-12.4379
-12.4876
-12.5323
-12.5724
-12.6086
-12.6414
-12.6712
-12.6985
-12.7236
-12.7471
-12.7693
-12.7905
-12.8111
-12.8315
-12.8522
-12.8736
-12.896
-12.92
-12.9461
-12.975
-13.0071
-13.0432
-13.084
-13.1302
-13.1826
-13.2417
-13.3082
-13.382
-13.4625
-13.5482
-13.6357
-13.7191
-13.7901
-13.8366
-13.8322
-13.7461
-11.7495
-11.6707
-11.6571
-11.6873
-11.7422
-11.8128
-11.892
-11.9741
-12.0553
-12.1333
-12.2067
-12.2747
-12.3373
-12.3945
-12.4465
-12.4938
-12.5367
-12.5756
-12.611
-12.6433
-12.6728
-12.7001
-12.7253
-12.7489
-12.7712
-12.7926
-12.8135
-12.8341
-12.8549
-12.8763
-12.8986
-12.9223
-12.9479
-12.9759
-13.0067
-13.0409
-13.079
-13.1215
-13.1688
-13.2211
-13.2786
-13.3407
-13.4064
-13.4738
-13.5393
-13.598
-13.6434
-13.667
-13.6512
-13.5763
-11.9108
-11.8418
-11.8217
-11.8358
-11.871
-11.9212
-11.981
-12.0459
-12.1124
-12.1782
-12.2415
-12.3016
-12.3579
-12.4101
-12.4583
-12.5027
-12.5433
-12.5806
-12.6147
-12.6461
-12.675
-12.7018
-12.7267
-12.7501
-12.7723
-12.7936
-12.8143
-12.8348
-12.8554
-12.8765
-12.8984
-12.9214
-12.9461
-12.9728
-13.0019
-13.0338
-13.0689
-13.1074
-13.1496
-13.1953
-13.2444
-13.2962
-13.3493
-13.4018
-13.4506
-13.4916
-13.5199
-13.5299
-13.5095
-13.4457
-12.0411
-11.9808
-11.9581
-11.9623
-11.9841
-12.0194
-12.0644
-12.1154
-12.1695
-12.2244
-12.2787
-12.3312
-12.3812
-12.4284
-12.4725
-12.5136
-12.5517
-12.5869
-12.6195
-12.6496
-12.6776
-12.7035
-12.7278
-12.7507
-12.7725
-12.7934
-12.8137
-12.8338
-12.8539
-12.8744
-12.8955
-12.9177
-12.9412
-12.9663
-12.9935
-13.0229
-13.0548
-13.0893
-13.1265
-13.1661
-13.2077
-13.2505
-13.2933
-13.334
-13.3702
-13.3986
-13.4156
-13.4175
-13.396
-13.3418
-12.1485
-12.0958
-12.0725
-12.0706
-12.0833
-12.1078
-12.1415
-12.1813
-12.225
-12.2707
-12.3167
-12.3622
-12.4063
-12.4484
-12.4884
-12.5261
-12.5614
-12.5943
-12.625
-12.6536
-12.6802
-12.7052
-12.7286
-12.7507
-12.7718
-12.792
-12.8117
-12.8311
-12.8505
-12.8701
-12.8903
-12.9113
-12.9334
-12.9569
-12.982
-13.0088
-13.0376
-13.0683
-13.1008
-13.1349
-13.17
-13.2052
-13.2395
-13.271
-13.2978
-13.3173
-13.3268
-13.3241
-13.3032
-13.2571
-12.2388
-12.1924
-12.1696
-12.1641
-12.1705
-12.1872
-12.2122
-12.2432
-12.2783
-12.3159
-12.3548
-12.3938
-12.4323
-12.4696
-12.5055
-12.5397
-12.572
-12.6025
-12.6311
-12.6579
-12.683
-12.7067
-12.7289
-12.7501
-12.7702
-12.7896
-12.8084
-12.827
-12.8454
-12.8641
-12.8831
-12.9028
-12.9234
-12.9451
-12.968
-12.9923
-13.018
-13.0452
-13.0735
-13.1027
-13.1321
-13.1611
-13.1886
-13.213
-13.2328
-13.2459
-13.2507
-13.2455
-13.2259
-13.1865
-12.3155
-12.2746
-12.2529
-12.2453
-12.2475
-12.2585
-12.2768
-12.3007
-12.3288
-12.3596
-12.3921
-12.4254
-12.4587
-12.4915
-12.5234
-12.5541
-12.5834
-12.6112
-12.6376
-12.6624
-12.6859
-12.708
-12.729
-12.7489
-12.7679
-12.7863
-12.8041
-12.8216
-12.839
-12.8565
-12.8743
-12.8926
-12.9116
-12.9314
-12.9522
-12.974
-12.9969
-13.0207
-13.0453
-13.0702
-13.0949
-13.1188
-13.1408
-13.1597
-13.1743
-13.1831
-13.1848
-13.1783
-13.1604
-13.1268
-12.3816
-12.3453
-12.3251
-12.3163
-12.3157
-12.3225
-12.3357
-12.3541
-12.3764
-12.4015
-12.4285
-12.4566
-12.4852
-12.5137
-12.5417
-12.569
-12.5953
-12.6204
-12.6444
-12.6672
-12.6888
-12.7093
-12.7288
-12.7474
-12.7651
-12.7823
-12.7989
-12.8152
-12.8314
-12.8477
-12.8641
-12.8809
-12.8983
-12.9163
-12.935
-12.9545
-12.9748
-12.9956
-13.0168
-13.038
-13.0588
-13.0784
-13.096
-13.1108
-13.1216
-13.1273
-13.1271
-13.1203
-13.1042
-13.0754
-12.4389
-12.4069
-12.3881
-12.379
-12.3765
-12.3803
-12.3896
-12.4035
-12.4211
-12.4414
-12.4636
-12.4872
-12.5115
-12.536
-12.5603
-12.5843
-12.6076
-12.63
-12.6516
-12.6722
-12.6919
-12.7106
-12.7285
-12.7456
-12.7619
-12.7777
-12.7931
-12.8081
-12.823
-12.8379
-12.8529
-12.8682
-12.8839
-12.9001
-12.9169
-12.9342
-12.952
-12.9701
-12.9884
-13.0064
-13.0238
-13.04
-13.0542
-13.0658
-13.0738
-13.0775
-13.0761
-13.0694
-13.0552
-13.0308
-12.4891
-12.4608
-12.4438
-12.4346
-12.431
-12.4326
-12.439
-12.4494
-12.463
-12.4793
-12.4974
-12.5169
-12.5373
-12.5581
-12.5791
-12.5998
-12.6202
-12.64
-12.6591
-12.6776
-12.6952
-12.7121
-12.7282
-12.7437
-12.7586
-12.7729
-12.7869
-12.8005
-12.814
-12.8275
-12.8411
-12.8548
-12.8689
-12.8833
-12.8981
-12.9134
-12.9289
-12.9446
-12.9603
-12.9756
-12.9902
-13.0036
-13.0151
-13.0242
-13.0302
-13.0325
-13.0306
-13.0244
-13.0121
-12.9914
-12.5334
-12.5086
-12.4932
-12.4844
-12.4802
-12.4803
-12.4845
-12.492
-12.5025
-12.5153
-12.5299
-12.5458
-12.5627
-12.5801
-12.5979
-12.6156
-12.6331
-12.6503
-12.667
-12.6832
-12.6988
-12.7137
-12.7281
-12.7419
-12.7551
-12.768
-12.7804
-12.7927
-12.8047
-12.8167
-12.8288
-12.8409
-12.8534
-12.8661
-12.879
-12.8923
-12.9058
-12.9193
-12.9327
-12.9457
-12.9579
-12.9689
-12.9783
-12.9856
-12.9901
-12.9916
-12.9896
-12.984
-12.9735
-12.9563
-12.5729
-12.5513
-12.5376
-12.5294
-12.5249
-12.524
-12.5264
-12.5318
-12.5396
-12.5495
-12.5611
-12.5738
-12.5876
-12.6019
-12.6167
-12.6315
-12.6463
-12.661
-12.6753
-12.6892
-12.7027
-12.7157
-12.7282
-12.7403
-12.7519
-12.7631
-12.774
-12.7847
-12.7953
-12.8057
-12.8163
-12.8269
-12.8376
-12.8486
-12.8598
-12.8712
-12.8828
-12.8943
-12.9057
-12.9166
-12.9268
-12.9359
-12.9436
-12.9494
-12.953
-12.9539
-12.952
-12.9473
-12.9386
-12.9246
-12.6084
-12.5898
-12.5778
-12.5703
-12.5658
-12.5643
-12.5655
-12.5691
-12.5748
-12.5822
-12.5911
-12.6011
-12.612
-12.6235
-12.6354
-12.6476
-12.6599
-12.672
-12.684
-12.6957
-12.7071
-12.7181
-12.7288
-12.739
-12.7489
-12.7585
-12.7678
-12.7769
-12.7859
-12.7948
-12.8038
-12.8128
-12.8219
-12.8312
-12.8407
-12.8503
-12.86
-12.8697
-12.8792
-12.8883
-12.8968
-12.9043
-12.9106
-12.9153
-12.9181
-12.9188
-12.9173
-12.9135
-12.9066
-12.8956
-12.6405
-12.6248
-12.6146
-12.6079
-12.6036
-12.6017
-12.602
-12.6042
-12.6081
-12.6135
-12.62
-12.6276
-12.6359
-12.6449
-12.6542
-12.6639
-12.6737
-12.6835
-12.6932
-12.7027
-12.712
-12.7211
-12.7298
-12.7383
-12.7464
-12.7543
-12.762
-12.7695
-12.7768
-12.7841
-12.7915
-12.7988
-12.8063
-12.8139
-12.8217
-12.8296
-12.8376
-12.8455
-12.8533
-12.8607
-12.8677
-12.8738
-12.8789
-12.8828
-12.8852
-12.8858
-12.8848
-12.882
-12.8769
-12.8686
-12.67
-12.6571
-12.6485
-12.6428
-12.6389
-12.6369
-12.6365
-12.6376
-12.64
-12.6436
-12.6481
-12.6535
-12.6595
-12.6661
-12.6731
-12.6803
-12.6878
-12.6953
-12.7028
-12.7102
-12.7175
-12.7246
-12.7314
-12.7381
-12.7445
-12.7506
-12.7566
-12.7624
-12.7681
-12.7738
-12.7795
-12.7852
-12.791
-12.7969
-12.803
-12.8091
-12.8154
-12.8217
-12.8278
-12.8338
-12.8393
-12.8442
-12.8483
-12.8515
-12.8536
-12.8544
-12.8539
-12.8521
-12.8487
-12.8432
-12.6973
-12.6871
-12.6803
-12.6755
-12.6722
-12.6701
-12.6693
-12.6695
-12.6707
-12.6727
-12.6755
-12.6789
-12.6828
-12.6872
-12.692
-12.697
-12.7022
-12.7076
-12.713
-12.7183
-12.7236
-12.7287
-12.7337
-12.7385
-12.7431
-12.7475
-12.7518
-12.7559
-12.7599
-12.7639
-12.7679
-12.7719
-12.776
-12.7802
-12.7845
-12.789
-12.7935
-12.7982
-12.8027
-12.8072
-12.8114
-12.8152
-12.8185
-12.8211
-12.8229
-12.8239
-12.8241
-12.8234
-12.8217
-12.8189
-12.7231
-12.7155
-12.7103
-12.7067
-12.7039
-12.7019
-12.7008
-12.7003
-12.7004
-12.7011
-12.7023
-12.7039
-12.7059
-12.7083
-12.711
-12.7139
-12.7171
-12.7203
-12.7237
-12.727
-12.7304
-12.7336
-12.7367
-12.7397
-12.7425
-12.7452
-12.7477
-12.7501
-12.7523
-12.7546
-12.7568
-12.759
-12.7614
-12.7638
-12.7664
-12.7691
-12.772
-12.7749
-12.7779
-12.781
-12.7839
-12.7866
-12.7891
-12.7912
-12.7928
-12.7941
-12.7949
-12.7953
-12.7953
-12.7951
-12.7476
-12.7427
-12.7392
-12.7366
-12.7345
-12.7327
-12.7314
-12.7303
-12.7295
-12.7289
-12.7287
-12.7286
-12.7289
-12.7294
-12.7301
-12.7311
-12.7322
-12.7335
-12.7349
-12.7363
-12.7378
-12.7391
-12.7404
-12.7416
-12.7426
-12.7435
-12.7443
-12.7449
-12.7454
-12.7458
-12.7463
-12.7467
-12.7472
-12.7478
-12.7486
-12.7495
-12.7506
-12.7519
-12.7533
-12.7548
-12.7565
-12.7581
-12.7598
-12.7614
-12.7629
-12.7644
-12.7659
-12.7674
-12.7692
-12.7715
-12.7715
-12.7692
-12.7674
-12.7659
-12.7644
-12.7629
-12.7614
-12.7598
-12.7581
-12.7565
-12.7548
-12.7533
-12.7519
-12.7506
-12.7495
-12.7486
-12.7478
-12.7472
-12.7467
-12.7463
-12.7459
-12.7454
-12.7449
-12.7443
-12.7435
-12.7426
-12.7416
-12.7404
-12.7391
-12.7378
-12.7363
-12.7349
-12.7335
-12.7322
-12.7311
-12.7301
-12.7294
-12.7289
-12.7286
-12.7287
-12.7289
-12.7295
-12.7303
-12.7314
-12.7327
-12.7345
-12.7366
-12.7392
-12.7427
-12.7476
-12.7951
-12.7954
-12.7953
-12.7949
-12.7941
-12.7929
-12.7912
-12.7891
-12.7866
-12.7839
-12.781
-12.778
-12.7749
-12.772
-12.7691
-12.7664
-12.7638
-12.7614
-12.759
-12.7568
-12.7546
-12.7523
-12.7501
-12.7477
-12.7452
-12.7425
-12.7397
-12.7367
-12.7336
-12.7303
-12.727
-12.7237
-12.7203
-12.717
-12.7139
-12.711
-12.7083
-12.7059
-12.7039
-12.7023
-12.7011
-12.7004
-12.7003
-12.7008
-12.7019
-12.7039
-12.7067
-12.7103
-12.7155
-12.7231
-12.8189
-12.8217
-12.8234
-12.8241
-12.8239
-12.8229
-12.8211
-12.8185
-12.8152
-12.8114
-12.8072
-12.8028
-12.7982
-12.7935
-12.789
-12.7845
-12.7802
-12.776
-12.7719
-12.7679
-12.7639
-12.7599
-12.7559
-12.7518
-12.7475
-12.7431
-12.7385
-12.7337
-12.7287
-12.7236
-12.7183
-12.713
-12.7076
-12.7022
-12.697
-12.692
-12.6872
-12.6828
-12.6789
-12.6755
-12.6727
-12.6707
-12.6695
-12.6693
-12.6701
-12.6722
-12.6755
-12.6802
-12.6871
-12.6973
-12.8432
-12.8487
-12.8521
-12.8539
-12.8544
-12.8536
-12.8515
-12.8483
-12.8442
-12.8393
-12.8338
-12.8278
-12.8217
-12.8154
-12.8091
-12.803
-12.7969
-12.791
-12.7852
-12.7795
-12.7738
-12.7681
-12.7624
-12.7566
-12.7506
-12.7445
-12.7381
-12.7314
-12.7246
-12.7175
-12.7102
-12.7028
-12.6953
-12.6878
-12.6803
-12.6731
-12.6661
-12.6595
-12.6535
-12.6481
-12.6436
-12.64
-12.6376
-12.6365
-12.6368
-12.6389
-12.6428
-12.6485
-12.6571
-12.67
-12.8686
-12.8769
-12.882
-12.8848
-12.8858
-12.8852
-12.8828
-12.8789
-12.8738
-12.8677
-12.8607
-12.8533
-12.8455
-12.8376
-12.8296
-12.8217
-12.8139
-12.8063
-12.7988
-12.7915
-12.7841
-12.7768
-12.7695
-12.762
-12.7543
-12.7464
-12.7383
-12.7298
-12.7211
-12.712
-12.7027
-12.6931
-12.6834
-12.6736
-12.6639
-12.6542
-12.6449
-12.6359
-12.6276
-12.62
-12.6135
-12.6081
-12.6042
-12.602
-12.6017
-12.6036
-12.6079
-12.6145
-12.6248
-12.6405
-12.8956
-12.9066
-12.9135
-12.9173
-12.9189
-12.9181
-12.9153
-12.9106
-12.9043
-12.8968
-12.8883
-12.8792
-12.8697
-12.86
-12.8503
-12.8407
-12.8312
-12.8219
-12.8128
-12.8038
-12.7948
-12.7859
-12.7769
-12.7678
-12.7585
-12.7489
-12.739
-12.7288
-12.7181
-12.7071
-12.6957
-12.684
-12.672
-12.6598
-12.6476
-12.6354
-12.6235
-12.612
-12.6011
-12.5911
-12.5822
-12.5748
-12.5691
-12.5655
-12.5643
-12.5658
-12.5703
-12.5778
-12.5898
-12.6083
-12.9246
-12.9386
-12.9473
-12.952
-12.9539
-12.953
-12.9494
-12.9436
-12.9359
-12.9268
-12.9166
-12.9057
-12.8943
-12.8828
-12.8713
-12.8598
-12.8486
-12.8376
-12.8269
-12.8163
-12.8057
-12.7953
-12.7847
-12.774
-12.7631
-12.7519
-12.7403
-12.7282
-12.7157
-12.7027
-12.6892
-12.6753
-12.661
-12.6463
-12.6315
-12.6166
-12.6019
-12.5876
-12.5738
-12.561
-12.5495
-12.5396
-12.5318
-12.5264
-12.524
-12.5249
-12.5294
-12.5376
-12.5513
-12.5729
-12.9563
-12.9735
-12.984
-12.9896
-12.9916
-12.9901
-12.9856
-12.9783
-12.9689
-12.9579
-12.9457
-12.9327
-12.9193
-12.9058
-12.8923
-12.879
-12.8661
-12.8534
-12.8409
-12.8287
-12.8167
-12.8047
-12.7926
-12.7804
-12.768
-12.7551
-12.7419
-12.7281
-12.7137
-12.6988
-12.6832
-12.667
-12.6503
-12.6331
-12.6156
-12.5978
-12.5801
-12.5627
-12.5458
-12.5298
-12.5152
-12.5025
-12.492
-12.4844
-12.4803
-12.4802
-12.4844
-12.4932
-12.5086
-12.5334
-12.9914
-13.0121
-13.0244
-13.0306
-13.0325
-13.0302
-13.0242
-13.0151
-13.0036
-12.9902
-12.9756
-12.9603
-12.9446
-12.9289
-12.9134
-12.8981
-12.8833
-12.8689
-12.8548
-12.8411
-12.8275
-12.814
-12.8005
-12.7868
-12.7729
-12.7585
-12.7437
-12.7282
-12.7121
-12.6952
-12.6775
-12.6591
-12.64
-12.6202
-12.5998
-12.5791
-12.5581
-12.5373
-12.5169
-12.4974
-12.4792
-12.463
-12.4494
-12.439
-12.4326
-12.431
-12.4346
-12.4437
-12.4608
-12.4891
-13.0308
-13.0552
-13.0694
-13.0762
-13.0775
-13.0738
-13.0658
-13.0542
-13.04
-13.0238
-13.0064
-12.9884
-12.9701
-12.952
-12.9342
-12.9169
-12.9001
-12.8839
-12.8682
-12.8529
-12.8379
-12.823
-12.8081
-12.7931
-12.7777
-12.7619
-12.7456
-12.7285
-12.7106
-12.6919
-12.6722
-12.6516
-12.63
-12.6075
-12.5843
-12.5603
-12.5359
-12.5114
-12.4872
-12.4636
-12.4413
-12.421
-12.4035
-12.3896
-12.3803
-12.3765
-12.3789
-12.3881
-12.4068
-12.4389
-13.0754
-13.1042
-13.1203
-13.1271
-13.1273
-13.1216
-13.1108
-13.096
-13.0784
-13.0588
-13.038
-13.0168
-12.9956
-12.9748
-12.9545
-12.935
-12.9163
-12.8983
-12.8809
-12.8641
-12.8477
-12.8314
-12.8152
-12.7989
-12.7822
-12.7651
-12.7474
-12.7288
-12.7093
-12.6888
-12.6672
-12.6444
-12.6204
-12.5952
-12.569
-12.5417
-12.5137
-12.4852
-12.4566
-12.4285
-12.4015
-12.3763
-12.354
-12.3357
-12.3225
-12.3157
-12.3163
-12.325
-12.3453
-12.3815
-13.1268
-13.1604
-13.1783
-13.1848
-13.1831
-13.1743
-13.1597
-13.1408
-13.1188
-13.0949
-13.0702
-13.0453
-13.0207
-12.9969
-12.974
-12.9522
-12.9314
-12.9116
-12.8926
-12.8743
-12.8565
-12.839
-12.8216
-12.8041
-12.7863
-12.7679
-12.7489
-12.729
-12.708
-12.6859
-12.6624
-12.6375
-12.6112
-12.5834
-12.554
-12.5234
-12.4915
-12.4587
-12.4254
-12.3921
-12.3596
-12.3287
-12.3007
-12.2767
-12.2584
-12.2475
-12.2452
-12.2529
-12.2745
-12.3155
-13.1865
-13.2259
-13.2455
-13.2507
-13.2459
-13.2328
-13.213
-13.1886
-13.1611
-13.1321
-13.1027
-13.0735
-13.0452
-13.018
-12.9923
-12.968
-12.9451
-12.9234
-12.9028
-12.8831
-12.8641
-12.8454
-12.827
-12.8084
-12.7896
-12.7702
-12.75
-12.7289
-12.7067
-12.683
-12.6579
-12.631
-12.6024
-12.572
-12.5397
-12.5055
-12.4696
-12.4323
-12.3938
-12.3547
-12.3159
-12.2782
-12.2431
-12.2121
-12.1872
-12.1705
-12.1641
-12.1696
-12.1923
-12.2387
-13.2571
-13.3032
-13.3241
-13.3268
-13.3173
-13.2978
-13.271
-13.2395
-13.2052
-13.17
-13.1349
-13.1008
-13.0683
-13.0376
-13.0088
-12.9819
-12.9569
-12.9334
-12.9113
-12.8903
-12.8701
-12.8505
-12.8311
-12.8117
-12.792
-12.7717
-12.7507
-12.7286
-12.7052
-12.6802
-12.6536
-12.625
-12.5943
-12.5614
-12.5261
-12.4884
-12.4484
-12.4062
-12.3622
-12.3167
-12.2706
-12.225
-12.1813
-12.1415
-12.1078
-12.0833
-12.0706
-12.0725
-12.0958
-12.1485
-13.3418
-13.396
-13.4175
-13.4156
-13.3986
-13.3702
-13.334
-13.2933
-13.2505
-13.2077
-13.1661
-13.1265
-13.0893
-13.0548
-13.0229
-12.9935
-12.9663
-12.9411
-12.9176
-12.8955
-12.8744
-12.8539
-12.8338
-12.8137
-12.7934
-12.7725
-12.7507
-12.7278
-12.7035
-12.6775
-12.6496
-12.6195
-12.5869
-12.5517
-12.5136
-12.4725
-12.4284
-12.3812
-12.3311
-12.2787
-12.2244
-12.1695
-12.1154
-12.0644
-12.0194
-11.984
-11.9622
-11.958
-11.9808
-12.041
-13.4457
-13.5095
-13.5299
-13.5199
-13.4916
-13.4506
-13.4018
-13.3493
-13.2962
-13.2444
-13.1953
-13.1496
-13.1074
-13.0689
-13.0338
-13.0019
-12.9728
-12.9461
-12.9214
-12.8983
-12.8765
-12.8554
-12.8348
-12.8143
-12.7936
-12.7723
-12.7501
-12.7267
-12.7018
-12.675
-12.6461
-12.6147
-12.5806
-12.5433
-12.5026
-12.4583
-12.4101
-12.3579
-12.3016
-12.2415
-12.1781
-12.1124
-12.0459
-11.981
-11.9211
-11.8709
-11.8358
-11.8216
-11.8418
-11.9108
-13.5763
-13.6512
-13.667
-13.6434
-13.598
-13.5393
-13.4738
-13.4064
-13.3407
-13.2786
-13.2211
-13.1688
-13.1215
-13.079
-13.0409
-13.0067
-12.9759
-12.9479
-12.9223
-12.8986
-12.8763
-12.8549
-12.8341
-12.8134
-12.7926
-12.7712
-12.7489
-12.7253
-12.7
-12.6728
-12.6433
-12.611
-12.5756
-12.5366
-12.4937
-12.4465
-12.3944
-12.3373
-12.2747
-12.2066
-12.1333
-12.0553
-11.974
-11.8919
-11.8127
-11.7422
-11.6873
-11.6571
-11.6707
-11.7494
-13.7461
-13.8322
-13.8366
-13.7901
-13.7191
-13.6357
-13.5482
-13.4625
-13.382
-13.3082
-13.2417
-13.1826
-13.1302
-13.084
-13.0432
-13.0071
-12.9749
-12.9461
-12.92
-12.896
-12.8735
-12.8522
-12.8315
-12.8111
-12.7904
-12.7692
-12.7471
-12.7236
-12.6984
-12.6712
-12.6413
-12.6086
-12.5724
-12.5322
-12.4876
-12.4379
-12.3824
-12.3207
-12.252
-12.1758
-12.0918
-12.0003
-11.902
-11.7988
-11.6948
-11.5964
-11.5125
-11.4562
-11.4556
-11.5436
-13.9764
-14.0694
-14.0487
-13.9641
-13.8549
-13.7376
-13.622
-13.5142
-13.4167
-13.3304
-13.2548
-13.1891
-13.1321
-13.0827
-13.0398
-13.0024
-12.9696
-12.9404
-12.9142
-12.8904
-12.8683
-12.8474
-12.8272
-12.8073
-12.7872
-12.7665
-12.7449
-12.722
-12.6972
-12.6703
-12.6407
-12.6079
-12.5714
-12.5307
-12.4849
-12.4334
-12.3753
-12.3096
-12.2353
-12.1513
-12.0567
-11.9507
-11.8332
-11.7051
-11.5697
-11.4334
-11.3072
-11.2084
-11.1787
-11.2704
-14.3063
-14.3882
-14.315
-14.1677
-14.0024
-13.8397
-13.6895
-13.5562
-13.4406
-13.3417
-13.2576
-13.1862
-13.1257
-13.0741
-13.0301
-12.9922
-12.9593
-12.9305
-12.9049
-12.8817
-12.8604
-12.8404
-12.8211
-12.8021
-12.783
-12.7633
-12.7426
-12.7206
-12.6967
-12.6705
-12.6416
-12.6094
-12.5733
-12.5326
-12.4865
-12.4341
-12.3743
-12.3058
-12.227
-12.1363
-12.0317
-11.9113
-11.7732
-11.6167
-11.4428
-11.2566
-11.0689
-10.9016
-10.8132
-10.8881
-14.8079
-14.8265
-14.647
-14.3984
-14.1532
-13.9322
-13.7414
-13.581
-13.4478
-13.3378
-13.247
-13.1718
-13.1093
-13.0571
-13.0132
-12.976
-12.944
-12.9163
-12.892
-12.8701
-12.8501
-12.8315
-12.8135
-12.7959
-12.7781
-12.7598
-12.7404
-12.7197
-12.6971
-12.6722
-12.6446
-12.6135
-12.5785
-12.5387
-12.4933
-12.4412
-12.381
-12.3112
-12.2297
-12.1341
-12.0215
-11.8882
-11.7301
-11.5434
-11.3248
-11.0749
-10.8003
-10.5237
-10.3201
-10.3211
-15.6123
-15.4345
-15.0525
-14.6469
-14.2919
-14.0001
-13.7658
-13.5797
-13.4321
-13.3146
-13.2203
-13.1442
-13.0822
-13.0313
-12.9891
-12.9537
-12.9238
-12.8981
-12.8757
-12.8558
-12.8377
-12.8209
-12.8048
-12.7889
-12.7729
-12.7563
-12.7387
-12.7197
-12.6988
-12.6757
-12.6498
-12.6206
-12.5874
-12.5494
-12.5057
-12.4551
-12.3962
-12.3271
-12.2454
-12.148
-12.0307
-11.8881
-11.7134
-11.4979
-11.2316
-10.9047
-10.5119
-10.0671
-9.64826
-9.43523
-17.0162
-16.2529
-15.5074
-14.8798
-14.3879
-14.0195
-13.7464
-13.5422
-13.3875
-13.2686
-13.1759
-13.1027
-13.0442
-12.9968
-12.958
-12.926
-12.8991
-12.8763
-12.8566
-12.8393
-12.8237
-12.8091
-12.7953
-12.7816
-12.7677
-12.7531
-12.7376
-12.7207
-12.7021
-12.6812
-12.6576
-12.6308
-12.6001
-12.5648
-12.5239
-12.4764
-12.4205
-12.3545
-12.2757
-12.1804
-12.0636
-11.9184
-11.7346
-11.4982
-11.1889
-10.7791
-10.2391
-9.55836
-8.75758
-7.92538
-19.8498
-17.2506
-15.8308
-14.943
-14.3336
-13.9205
-13.6385
-13.4399
-13.2953
-13.1873
-13.1048
-13.0407
-12.9901
-12.9496
-12.9168
-12.89
-12.8678
-12.8492
-12.8333
-12.8195
-12.807
-12.7956
-12.7846
-12.7736
-12.7624
-12.7506
-12.7377
-12.7236
-12.7077
-12.6897
-12.6692
-12.6457
-12.6186
-12.5873
-12.5508
-12.5082
-12.4581
-12.3985
-12.3271
-12.2404
-12.1331
-11.9978
-11.8228
-11.59
-11.2688
-10.8092
-10.1417
-9.1819
-7.67538
-4.95557
-24.7185
-18.3337
-15.6667
-14.5663
-13.967
-13.6097
-13.3873
-13.2388
-13.1332
-13.0549
-12.9953
-12.9489
-12.9125
-12.8834
-12.8602
-12.8414
-12.8262
-12.8136
-12.8031
-12.7941
-12.7861
-12.7788
-12.7717
-12.7645
-12.7569
-12.7487
-12.7394
-12.7289
-12.7168
-12.7027
-12.6865
-12.6676
-12.6456
-12.62
-12.5902
-12.5553
-12.5143
-12.4658
-12.4081
-12.3385
-12.2533
-12.1468
-12.0097
-11.8255
-11.5625
-11.1568
-10.4919
-9.29651
-6.51169
0.000104351
)
;

boundaryField
{
    movingWallTop
    {
        type            zeroGradient;
    }
    movingWallBottom
    {
        type            zeroGradient;
    }
    fixedWalls
    {
        type            zeroGradient;
    }
    frontAndBack
    {
        type            empty;
    }
}


// ************************************************************************* //
