/*--------------------------------*- C++ -*----------------------------------*\
  =========                 |
  \\      /  F ield         | OpenFOAM: The Open Source CFD Toolbox
   \\    /   O peration     | Website:  https://openfoam.org
    \\  /    A nd           | Version:  7
     \\/     M anipulation  |
\*---------------------------------------------------------------------------*/
FoamFile
{
    version     2.0;
    format      ascii;
    class       surfaceScalarField;
    location    "0.04";
    object      phi;
}
// * * * * * * * * * * * * * * * * * * * * * * * * * * * * * * * * * * * * * //

dimensions      [0 3 -1 0 0 0 0];

internalField   nonuniform List<scalar> 
4900
(
-5.55578e-06
5.55578e-06
-1.01615e-05
4.60569e-06
-1.29489e-05
2.78739e-06
-1.46684e-05
1.71949e-06
-1.57697e-05
1.10138e-06
-1.65071e-05
7.37381e-07
-1.7026e-05
5.18839e-07
-1.74082e-05
3.82271e-07
-1.77006e-05
2.92358e-07
-1.79306e-05
2.30059e-07
-1.81156e-05
1.8494e-07
-1.82666e-05
1.51032e-07
-1.83914e-05
1.24748e-07
-1.84952e-05
1.03829e-07
-1.8582e-05
8.67853e-08
-1.86546e-05
7.26e-08
-1.87151e-05
6.05544e-08
-1.87653e-05
5.01263e-08
-1.88062e-05
4.09269e-08
-1.88388e-05
3.26594e-08
-1.88639e-05
2.50919e-08
-1.8882e-05
1.80386e-08
-1.88933e-05
1.13461e-08
-1.88982e-05
4.88441e-09
-1.88967e-05
-1.46241e-09
-1.88889e-05
-7.79889e-09
-1.88747e-05
-1.42283e-08
-1.88539e-05
-2.08537e-08
-1.88261e-05
-2.77856e-08
-1.87909e-05
-3.51471e-08
-1.87479e-05
-4.30824e-08
-1.86961e-05
-5.17661e-08
-1.86347e-05
-6.14171e-08
-1.85624e-05
-7.23176e-08
-1.84775e-05
-8.4841e-08
-1.8378e-05
-9.94939e-08
-1.8261e-05
-1.16981e-07
-1.81227e-05
-1.38311e-07
-1.79577e-05
-1.64975e-07
-1.77585e-05
-1.99259e-07
-1.75137e-05
-2.44814e-07
-1.7206e-05
-3.07724e-07
-1.68074e-05
-3.98567e-07
-1.6271e-05
-5.36369e-07
-1.55154e-05
-7.55589e-07
-1.43995e-05
-1.11588e-06
-1.2684e-05
-1.71557e-06
-9.94735e-06
-2.73663e-06
-5.4529e-06
-4.49445e-06
-5.4529e-06
-1.19432e-08
5.56772e-06
-2.12985e-06
6.7236e-06
-4.85527e-06
5.51281e-06
-7.26978e-06
4.13401e-06
-9.20442e-06
3.03602e-06
-1.0712e-05
2.24498e-06
-1.1886e-05
1.69283e-06
-1.28095e-05
1.30577e-06
-1.3546e-05
1.02886e-06
-1.41416e-05
8.25625e-07
-1.46291e-05
6.72501e-07
-1.50323e-05
5.54209e-07
-1.53682e-05
4.60678e-07
-1.56495e-05
3.85121e-07
-1.58856e-05
3.22845e-07
-1.60835e-05
2.7053e-07
-1.62487e-05
2.25766e-07
-1.63854e-05
1.86772e-07
-1.64966e-05
1.52196e-07
-1.6585e-05
1.20996e-07
-1.66522e-05
9.2349e-08
-1.66998e-05
6.55876e-08
-1.67286e-05
4.0159e-08
-1.67393e-05
1.55896e-08
-1.67322e-05
-8.53956e-09
-1.67074e-05
-3.26162e-08
-1.66646e-05
-5.7013e-08
-1.66034e-05
-8.21073e-08
-1.65229e-05
-1.08299e-07
-1.6422e-05
-1.36033e-07
-1.62992e-05
-1.65823e-07
-1.61527e-05
-1.98287e-07
-1.59799e-05
-2.34191e-07
-1.57778e-05
-2.74508e-07
-1.55421e-05
-3.20508e-07
-1.52677e-05
-3.73879e-07
-1.49478e-05
-4.36919e-07
-1.45733e-05
-5.12814e-07
-1.41321e-05
-6.06086e-07
-1.36081e-05
-7.23293e-07
-1.29788e-05
-8.74153e-07
-1.22132e-05
-1.07334e-06
-1.12685e-05
-1.34324e-06
-1.00868e-05
-1.71804e-06
-8.5942e-06
-2.2482e-06
-6.71065e-06
-2.99943e-06
-4.39672e-06
-4.0295e-06
-1.82098e-06
-5.31237e-06
1.23397e-07
-6.43883e-06
-5.32951e-06
1.03305e-06
4.53467e-06
5.49754e-07
7.20689e-06
-9.85536e-07
7.0481e-06
-2.8755e-06
6.02397e-06
-4.72654e-06
4.88706e-06
-6.37838e-06
3.89682e-06
-7.7918e-06
3.10625e-06
-8.98011e-06
2.49407e-06
-9.97384e-06
2.02259e-06
-1.08054e-05
1.65714e-06
-1.15032e-05
1.37039e-06
-1.2091e-05
1.142e-06
-1.25875e-05
9.57156e-07
-1.30075e-05
8.05097e-07
-1.33626e-05
6.77947e-07
-1.36619e-05
5.69886e-07
-1.39127e-05
4.76549e-07
-1.41206e-05
3.94615e-07
-1.42899e-05
3.21514e-07
-1.44241e-05
2.55227e-07
-1.45259e-05
1.94133e-07
-1.45972e-05
1.36907e-07
-1.46395e-05
8.2436e-08
-1.46537e-05
2.97625e-08
-1.46402e-05
-2.19662e-08
-1.45993e-05
-7.35389e-08
-1.45306e-05
-1.25715e-07
-1.44335e-05
-1.79257e-07
-1.43068e-05
-2.3497e-07
-1.41491e-05
-2.93738e-07
-1.39583e-05
-3.56572e-07
-1.3732e-05
-4.2467e-07
-1.34667e-05
-4.99492e-07
-1.31583e-05
-5.82861e-07
-1.28017e-05
-6.77104e-07
-1.23904e-05
-7.85242e-07
-1.1916e-05
-9.11261e-07
-1.13683e-05
-1.06049e-06
-1.07343e-05
-1.24014e-06
-9.99751e-06
-1.46006e-06
-9.13794e-06
-1.73372e-06
-8.13178e-06
-2.07949e-06
-6.95333e-06
-2.5217e-06
-5.58068e-06
-3.09069e-06
-4.01046e-06
-3.81842e-06
-2.28948e-06
-4.72041e-06
-5.75189e-07
-5.74379e-06
7.64739e-07
-6.6523e-06
1.08686e-06
-6.76095e-06
-4.24264e-06
9.07456e-07
3.62722e-06
1.2331e-06
6.88125e-06
6.53519e-07
7.62768e-06
-5.05557e-07
7.18305e-06
-1.91546e-06
6.29696e-06
-3.35824e-06
5.3396e-06
-4.71722e-06
4.46523e-06
-5.9429e-06
3.71976e-06
-7.02303e-06
3.10271e-06
-7.96321e-06
2.59733e-06
-8.77631e-06
2.18348e-06
-9.47699e-06
1.84269e-06
-1.00793e-05
1.5595e-06
-1.05958e-05
1.32158e-06
-1.10371e-05
1.11923e-06
-1.14121e-05
9.44864e-07
-1.17281e-05
7.92545e-07
-1.19911e-05
6.57597e-07
-1.22059e-05
5.36299e-07
-1.23763e-05
4.25656e-07
-1.25054e-05
3.23218e-07
-1.25954e-05
2.26951e-07
-1.26481e-05
1.35125e-07
-1.26646e-05
4.62368e-08
-1.26455e-05
-4.10582e-08
-1.2591e-05
-1.28006e-07
-1.25009e-05
-2.15805e-07
-1.23745e-05
-3.05652e-07
-1.22107e-05
-3.98797e-07
-1.20078e-05
-4.96593e-07
-1.17639e-05
-6.00566e-07
-1.1476e-05
-7.1249e-07
-1.1141e-05
-8.3448e-07
-1.07548e-05
-9.69119e-07
-1.03123e-05
-1.11962e-06
-9.80751e-06
-1.29001e-06
-9.23336e-06
-1.48541e-06
-8.58148e-06
-1.71237e-06
-7.84238e-06
-1.97924e-06
-7.00586e-06
-2.29658e-06
-6.06209e-06
-2.67749e-06
-5.00416e-06
-3.13742e-06
-3.8331e-06
-3.69275e-06
-2.56757e-06
-4.35623e-06
-1.26053e-06
-5.12545e-06
-2.43895e-08
-5.95656e-06
9.42501e-07
-6.71068e-06
1.34839e-06
-7.05818e-06
9.16441e-07
-6.32901e-06
-3.3262e-06
6.73407e-07
2.95381e-06
1.24984e-06
6.30482e-06
1.23694e-06
7.64057e-06
6.75198e-07
7.74479e-06
-2.48265e-07
7.22043e-06
-1.35145e-06
6.44278e-06
-2.50239e-06
5.61617e-06
-3.62011e-06
4.83748e-06
-4.66149e-06
4.14409e-06
-5.60756e-06
3.5434e-06
-6.45339e-06
3.02931e-06
-7.20149e-06
2.59079e-06
-7.8579e-06
2.21591e-06
-8.42991e-06
1.8936e-06
-8.92491e-06
1.61423e-06
-9.34978e-06
1.36974e-06
-9.71064e-06
1.1534e-06
-1.00128e-05
9.59721e-07
-1.02606e-05
7.8414e-07
-1.04578e-05
6.2289e-07
-1.06074e-05
4.72816e-07
-1.07117e-05
3.31243e-07
-1.07725e-05
1.95865e-07
-1.07909e-05
6.46553e-08
-1.07677e-05
-6.42151e-08
-1.07033e-05
-1.92442e-07
-1.05974e-05
-3.21653e-07
-1.04496e-05
-4.53462e-07
-1.02589e-05
-5.89532e-07
-1.00239e-05
-7.31641e-07
-9.74267e-06
-8.81749e-07
-9.41308e-06
-1.04208e-06
-9.03232e-06
-1.21524e-06
-8.59716e-06
-1.40428e-06
-8.10387e-06
-1.6129e-06
-7.54833e-06
-1.84555e-06
-6.92612e-06
-2.10762e-06
-6.2329e-06
-2.40559e-06
-5.46504e-06
-2.7471e-06
-4.6208e-06
-3.14083e-06
-3.70238e-06
-3.5959e-06
-2.7195e-06
-4.12031e-06
-1.69489e-06
-4.71736e-06
-6.72703e-07
-5.37841e-06
2.70729e-07
-6.06888e-06
1.01737e-06
-6.7032e-06
1.41063e-06
-7.10393e-06
1.29778e-06
-6.94533e-06
6.6644e-07
-5.69767e-06
-2.65976e-06
4.82487e-07
2.47132e-06
1.08386e-06
5.70345e-06
1.35778e-06
7.36665e-06
1.20341e-06
7.89917e-06
6.87957e-07
7.73588e-06
-7.04217e-08
7.20116e-06
-9.60144e-07
6.50589e-06
-1.89632e-06
5.77365e-06
-2.82181e-06
5.06958e-06
-3.70177e-06
4.42336e-06
-4.5171e-06
3.84464e-06
-5.25897e-06
3.33265e-06
-5.92483e-06
2.88177e-06
-6.51574e-06
2.48451e-06
-7.03466e-06
2.13315e-06
-7.48535e-06
1.82043e-06
-7.8718e-06
1.53985e-06
-8.19781e-06
1.28574e-06
-8.46687e-06
1.0532e-06
-8.68201e-06
8.3803e-07
-8.8458e-06
6.36601e-07
-8.96032e-06
4.45768e-07
-9.02723e-06
2.62769e-07
-9.04771e-06
8.51394e-08
-9.02257e-06
-8.93574e-08
-8.95221e-06
-2.62805e-07
-8.83667e-06
-4.37194e-07
-8.67564e-06
-6.14487e-07
-8.4685e-06
-7.96676e-07
-8.21429e-06
-9.85848e-07
-7.91179e-06
-1.18425e-06
-7.55949e-06
-1.39438e-06
-7.15571e-06
-1.61902e-06
-6.6986e-06
-1.86139e-06
-6.18637e-06
-2.12514e-06
-5.61742e-06
-2.4145e-06
-4.9908e-06
-2.73424e-06
-4.3068e-06
-3.0896e-06
-3.56787e-06
-3.48602e-06
-2.7802e-06
-3.9285e-06
-1.95589e-06
-4.42022e-06
-1.11616e-06
-4.96003e-06
-2.95641e-07
-5.53789e-06
4.52905e-07
-6.12696e-06
1.05496e-06
-6.67094e-06
1.41678e-06
-7.06501e-06
1.44397e-06
-7.13112e-06
1.09212e-06
-6.59348e-06
4.70115e-07
-5.07566e-06
-2.18965e-06
3.50481e-07
2.12084e-06
8.99794e-07
5.15414e-06
1.29615e-06
6.97029e-06
1.39167e-06
7.80366e-06
1.17819e-06
7.94936e-06
7.1523e-07
7.66412e-06
8.15038e-08
7.13962e-06
-6.50126e-07
6.50528e-06
-1.42204e-06
5.8415e-06
-2.19282e-06
5.19414e-06
-2.93481e-06
4.58663e-06
-3.63081e-06
4.02865e-06
-4.27103e-06
3.52198e-06
-4.85063e-06
3.06411e-06
-5.36797e-06
2.65049e-06
-5.82333e-06
2.27579e-06
-6.21807e-06
1.9346e-06
-6.55412e-06
1.62178e-06
-6.83356e-06
1.33263e-06
-7.05843e-06
1.0629e-06
-7.23063e-06
8.088e-07
-7.35179e-06
5.66933e-07
-7.42329e-06
3.34263e-07
-7.44618e-06
1.08036e-07
-7.42127e-06
-1.14276e-07
-7.34904e-06
-3.35035e-07
-7.22974e-06
-5.56491e-07
-7.06338e-06
-7.80842e-07
-6.84978e-06
-1.01028e-06
-6.58856e-06
-1.24706e-06
-6.27927e-06
-1.49354e-06
-5.92142e-06
-1.75223e-06
-5.5146e-06
-2.02585e-06
-5.05863e-06
-2.31735e-06
-4.55382e-06
-2.62995e-06
-4.00129e-06
-2.96703e-06
-3.40349e-06
-3.33204e-06
-2.76489e-06
-3.72819e-06
-2.09304e-06
-4.15787e-06
-1.39997e-06
-4.62157e-06
-7.04006e-07
-5.11619e-06
-3.19854e-08
-5.63205e-06
5.78487e-07
-6.14836e-06
1.07774e-06
-6.62621e-06
1.40573e-06
-6.99893e-06
1.50068e-06
-7.15996e-06
1.32067e-06
-6.95112e-06
8.84948e-07
-6.15776e-06
3.36491e-07
-4.5272e-06
-1.85316e-06
2.63384e-07
1.85746e-06
7.42801e-07
4.67472e-06
1.17519e-06
6.53789e-06
1.41184e-06
7.56701e-06
1.40578e-06
7.95541e-06
1.17399e-06
7.89591e-06
7.6346e-07
7.55015e-06
2.28781e-07
7.03996e-06
-3.79888e-07
6.45017e-06
-1.02165e-06
5.8359e-06
-1.66563e-06
5.2306e-06
-2.28982e-06
4.65285e-06
-2.87936e-06
4.11152e-06
-3.42471e-06
3.60947e-06
-3.9202e-06
3.14598e-06
-4.3628e-06
2.71838e-06
-4.75123e-06
2.32303e-06
-5.08534e-06
1.9559e-06
-5.36565e-06
1.61295e-06
-5.59304e-06
1.29029e-06
-5.76852e-06
9.84284e-07
-5.89315e-06
6.91557e-07
-5.96788e-06
4.08999e-07
-5.99359e-06
1.33738e-07
-5.97097e-06
-1.36892e-07
-5.90061e-06
-4.05394e-07
-5.78295e-06
-6.74147e-07
-5.61835e-06
-9.45446e-07
-5.40709e-06
-1.22155e-06
-5.14945e-06
-1.50469e-06
-4.84583e-06
-1.79716e-06
-4.49679e-06
-2.10127e-06
-4.10324e-06
-2.4194e-06
-3.66665e-06
-2.75394e-06
-3.18935e-06
-3.10725e-06
-2.67487e-06
-3.48151e-06
-2.12848e-06
-3.87843e-06
-1.55792e-06
-4.29876e-06
-9.74201e-07
-4.74158e-06
-3.92757e-07
-5.20301e-06
1.65424e-07
-5.67437e-06
6.72703e-07
-6.13933e-06
1.09434e-06
-6.56999e-06
1.38962e-06
-6.9215e-06
1.51635e-06
-7.12565e-06
1.44092e-06
-7.08454e-06
1.15702e-06
-6.66722e-06
7.13793e-07
-5.71453e-06
2.48695e-07
-4.06211e-06
-1.60446e-06
2.05271e-07
1.65219e-06
6.18335e-07
4.26166e-06
1.04519e-06
6.11104e-06
1.35417e-06
7.25803e-06
1.48301e-06
7.82657e-06
1.42196e-06
7.95696e-06
1.19289e-06
7.77922e-06
8.32097e-07
7.40075e-06
3.78917e-07
6.90335e-06
-1.30574e-07
6.34539e-06
-6.6625e-07
5.76628e-06
-1.20449e-06
5.19109e-06
-1.72763e-06
4.63466e-06
-2.22299e-06
4.10483e-06
-2.68181e-06
3.6048e-06
-3.09829e-06
3.13486e-06
-3.46879e-06
2.69353e-06
-3.79121e-06
2.27831e-06
-4.06448e-06
1.88622e-06
-4.28826e-06
1.51407e-06
-4.46265e-06
1.15867e-06
-4.58798e-06
8.16896e-07
-4.66478e-06
4.85798e-07
-4.69362e-06
1.62571e-07
-4.67508e-06
-1.55428e-07
-4.60979e-06
-4.7069e-07
-4.49835e-06
-7.85578e-07
-4.34145e-06
-1.10235e-06
-4.13985e-06
-1.42315e-06
-3.89445e-06
-1.75009e-06
-3.60645e-06
-2.08517e-06
-3.27741e-06
-2.43031e-06
-2.90946e-06
-2.78734e-06
-2.50552e-06
-3.15788e-06
-2.06958e-06
-3.5432e-06
-1.60706e-06
-3.94403e-06
-1.1253e-06
-4.36018e-06
-6.34119e-07
-4.78995e-06
-1.46404e-07
-5.2293e-06
3.21187e-07
-5.6706e-06
7.47723e-07
-6.1009e-06
1.10787e-06
-6.49948e-06
1.37268e-06
-6.8348e-06
1.51204e-06
-7.06086e-06
1.49992e-06
-7.11353e-06
1.32356e-06
-6.90818e-06
9.97355e-07
-6.34101e-06
5.80142e-07
-5.29732e-06
1.90091e-07
-3.67205e-06
-1.41437e-06
1.6518e-07
1.48701e-06
5.21272e-07
3.90556e-06
9.24422e-07
5.70789e-06
1.2643e-06
6.91815e-06
1.47627e-06
7.6146e-06
1.53597e-06
7.89727e-06
1.44754e-06
7.86765e-06
1.23183e-06
7.61646e-06
9.17049e-07
7.21813e-06
5.32497e-07
6.72995e-06
1.05076e-07
6.1937e-06
-3.42325e-07
5.63849e-06
-7.91226e-07
5.08356e-06
-1.22729e-06
4.54089e-06
-1.63975e-06
4.01726e-06
-2.02076e-06
3.51588e-06
-2.3648e-06
3.03756e-06
-2.66806e-06
2.58158e-06
-2.92809e-06
2.14624e-06
-3.14335e-06
1.72934e-06
-3.31303e-06
1.32835e-06
-3.43679e-06
9.40651e-07
-3.51462e-06
5.63632e-07
-3.54679e-06
1.94734e-07
-3.53372e-06
-1.68496e-07
-3.47601e-06
-5.28392e-07
-3.37443e-06
-8.87158e-07
-3.22992e-06
-1.24686e-06
-3.04363e-06
-1.60944e-06
-2.81704e-06
-1.97667e-06
-2.55204e-06
-2.35017e-06
-2.25104e-06
-2.73132e-06
-1.91716e-06
-3.12122e-06
-1.55445e-06
-3.52059e-06
-1.16814e-06
-3.92951e-06
-7.64961e-07
-4.34722e-06
-3.53481e-07
-4.77166e-06
5.54827e-08
-5.19891e-06
4.48509e-07
-5.62232e-06
8.09315e-07
-6.03141e-06
1.11876e-06
-6.41035e-06
1.35539e-06
-6.73611e-06
1.49686e-06
-6.97628e-06
1.5229e-06
-7.0869e-06
1.42016e-06
-7.01078e-06
1.18958e-06
-6.6776e-06
8.55815e-07
-6.00725e-06
4.76903e-07
-4.91841e-06
1.49621e-07
-3.34477e-06
-1.26475e-06
1.36391e-07
1.35062e-06
4.45074e-07
3.59688e-06
8.17838e-07
5.33513e-06
1.16435e-06
6.57164e-06
1.42395e-06
7.35499e-06
1.5656e-06
7.75562e-06
1.5821e-06
7.85115e-06
1.48251e-06
7.71605e-06
1.28517e-06
7.41548e-06
1.01227e-06
7.00284e-06
6.86304e-07
6.51967e-06
3.2792e-07
5.99687e-06
-4.50425e-08
5.45652e-06
-4.17852e-07
4.9137e-06
-7.78751e-07
4.37816e-06
-1.11862e-06
3.85575e-06
-1.43055e-06
3.3495e-06
-1.70947e-06
2.86049e-06
-1.95172e-06
2.38849e-06
-2.15478e-06
1.93239e-06
-2.31697e-06
1.49054e-06
-2.43731e-06
1.06099e-06
-2.51529e-06
6.41616e-07
-2.55084e-06
2.30282e-07
-2.5442e-06
-1.75136e-07
-2.49592e-06
-5.76676e-07
-2.40682e-06
-9.76252e-07
-2.27806e-06
-1.37563e-06
-2.11111e-06
-1.77639e-06
-1.90789e-06
-2.1799e-06
-1.67081e-06
-2.58724e-06
-1.40295e-06
-2.99918e-06
-1.10815e-06
-3.41602e-06
-7.91252e-07
-3.83749e-06
-4.58263e-07
-4.2625e-06
-1.16622e-07
-4.68886e-06
2.24576e-07
-5.11286e-06
5.54367e-07
-5.5287e-06
8.59796e-07
-5.92775e-06
1.12596e-06
-6.29758e-06
1.33639e-06
-6.62078e-06
1.47396e-06
-6.87368e-06
1.52257e-06
-7.02489e-06
1.46997e-06
-7.0343e-06
1.31187e-06
-6.85267e-06
1.05729e-06
-6.42303e-06
7.34635e-07
-5.68459e-06
3.96522e-07
-4.5803e-06
1.20578e-07
-3.06883e-06
-1.14417e-06
1.14869e-07
1.23575e-06
3.84228e-07
3.32752e-06
7.25229e-07
4.99413e-06
1.06449e-06
6.23237e-06
1.34782e-06
7.07167e-06
1.54237e-06
7.56107e-06
1.63434e-06
7.75919e-06
1.62444e-06
7.72594e-06
1.52305e-06
7.51687e-06
1.34585e-06
7.18005e-06
1.11059e-06
6.75492e-06
8.34942e-07
6.27252e-06
5.35143e-07
5.75632e-06
2.25374e-07
5.22347e-06
-8.2449e-08
4.68598e-06
-3.78615e-07
4.15191e-06
-6.5541e-07
3.62629e-06
-9.06847e-07
3.11193e-06
-1.12839e-06
2.61004e-06
-1.31671e-06
2.12071e-06
-1.46942e-06
1.64326e-06
-1.58495e-06
1.17652e-06
-1.66235e-06
7.19015e-07
-1.7012e-06
2.69134e-07
-1.70155e-06
-1.74793e-07
-1.66383e-06
-6.14388e-07
-1.58892e-06
-1.05117e-06
-1.47805e-06
-1.4865e-06
-1.33294e-06
-1.9215e-06
-1.15578e-06
-2.35705e-06
-9.49388e-07
-2.79364e-06
-7.17239e-07
-3.23133e-06
-4.63644e-07
-3.66961e-06
-1.93876e-07
-4.10726e-06
8.56782e-08
-4.54205e-06
3.67364e-07
-4.97054e-06
6.42141e-07
-5.38763e-06
8.99517e-07
-5.78608e-06
1.12762e-06
-6.15585e-06
1.31344e-06
-6.4834e-06
1.44346e-06
-6.7508e-06
1.50465e-06
-6.93487e-06
1.48619e-06
-7.00643e-06
1.38189e-06
-6.93e-06
1.19339e-06
-6.66417e-06
9.3391e-07
-6.16355e-06
6.31841e-07
-5.38252e-06
3.32908e-07
-4.28136e-06
9.89353e-08
-2.83486e-06
-1.04524e-06
9.81664e-08
1.13758e-06
3.34585e-07
3.0911e-06
6.44701e-07
4.68401e-06
9.68896e-07
5.90818e-06
1.25999e-06
6.78057e-06
1.48606e-06
7.335e-06
1.62998e-06
7.61527e-06
1.68697e-06
7.66895e-06
1.66135e-06
7.54249e-06
1.5633e-06
7.2781e-06
1.40613e-06
6.91209e-06
1.20427e-06
6.47438e-06
9.71854e-07
5.98874e-06
7.21885e-07
5.47344e-06
4.65807e-07
4.94206e-06
2.13352e-07
4.40437e-06
-2.74296e-08
3.86707e-06
-2.50042e-07
3.33454e-06
-4.49367e-07
2.80937e-06
-6.21476e-07
2.29282e-06
-7.63449e-07
1.78523e-06
-8.73221e-07
1.28629e-06
-9.49449e-07
7.95244e-07
-9.91412e-07
3.11096e-07
-9.98933e-07
-1.67271e-07
-9.72341e-07
-6.4098e-07
-9.12443e-07
-1.11107e-06
-8.20533e-07
-1.57841e-06
-6.98419e-07
-2.04362e-06
-5.48468e-07
-2.507e-06
-3.73674e-07
-2.96843e-06
-1.77742e-07
-3.42726e-06
3.48201e-08
-3.88218e-06
2.58599e-07
-4.33103e-06
4.87182e-07
-4.77063e-06
7.13086e-07
-5.19645e-06
9.27728e-07
-5.60228e-06
1.12148e-06
-5.97983e-06
1.28387e-06
-6.31824e-06
1.40397e-06
-6.60349e-06
1.47104e-06
-6.81787e-06
1.47564e-06
-6.93947e-06
1.41109e-06
-6.94188e-06
1.27546e-06
-6.79436e-06
1.07395e-06
-6.46267e-06
8.21417e-07
-5.91102e-06
5.44347e-07
-5.10545e-06
2.8154e-07
-4.01856e-06
8.22363e-08
-2.63555e-06
-9.62999e-07
8.47572e-08
1.05282e-06
2.93147e-07
2.88271e-06
5.74053e-07
4.40311e-06
8.78857e-07
5.60338e-06
1.16706e-06
6.49237e-06
1.40904e-06
7.09303e-06
1.58648e-06
7.43782e-06
1.69127e-06
7.56415e-06
1.7234e-06
7.51036e-06
1.68865e-06
7.31285e-06
1.59646e-06
7.00428e-06
1.45813e-06
6.61271e-06
1.2855e-06
6.16137e-06
1.09005e-06
5.66888e-06
8.82334e-07
5.14978e-06
6.71667e-07
4.61503e-06
4.66043e-07
4.0727e-06
2.72125e-07
3.52846e-06
9.5338e-08
2.98615e-06
-6.0018e-08
2.44817e-06
-1.9064e-07
1.91585e-06
-2.94096e-07
1.38974e-06
-3.6872e-07
8.69868e-07
-4.13521e-07
3.55897e-07
-4.28115e-07
-1.52677e-07
-4.1268e-07
-6.56415e-07
-3.67933e-07
-1.15582e-06
-2.9513e-07
-1.65121e-06
-1.96079e-07
-2.14267e-06
-7.31768e-08
-2.6299e-06
7.0541e-08
-3.11215e-06
2.31345e-07
-3.58806e-06
4.04745e-07
-4.05558e-06
5.85435e-07
-4.51172e-06
7.67244e-07
-4.95244e-06
9.43133e-07
-5.37233e-06
1.10524e-06
-5.76438e-06
1.245e-06
-6.1196e-06
1.35346e-06
-6.4267e-06
1.42166e-06
-6.6717e-06
1.44138e-06
-6.83759e-06
1.40605e-06
-6.90414e-06
1.31205e-06
-6.84788e-06
1.16026e-06
-6.64257e-06
9.57772e-07
-6.26018e-06
7.19478e-07
-5.67272e-06
4.69111e-07
-4.85508e-06
2.39155e-07
-3.7886e-06
6.89354e-08
-2.46533e-06
-8.94064e-07
7.36612e-08
9.79162e-07
2.57762e-07
2.69861e-06
5.11276e-07
4.14959e-06
7.94358e-07
5.32029e-06
1.07251e-06
6.21421e-06
1.31899e-06
6.84655e-06
1.51566e-06
7.24115e-06
1.6526e-06
7.42722e-06
1.72687e-06
7.43609e-06
1.74093e-06
7.29879e-06
1.701e-06
7.04421e-06
1.61557e-06
6.69814e-06
1.49424e-06
6.28269e-06
1.34682e-06
5.8163e-06
1.18272e-06
5.31389e-06
1.01054e-06
4.78721e-06
8.37925e-07
4.24531e-06
6.71429e-07
3.69496e-06
5.16537e-07
3.14104e-06
3.77721e-07
2.58699e-06
2.58511e-07
2.03506e-06
1.61586e-07
1.48667e-06
8.88569e-08
9.42597e-07
4.15387e-08
4.03216e-07
2.02101e-08
-1.31349e-07
2.4855e-08
-6.6106e-07
5.48868e-08
-1.18585e-06
1.09155e-07
-1.70548e-06
1.8594e-07
-2.21945e-06
2.82926e-07
-2.72689e-06
3.97175e-07
-3.2264e-06
5.2509e-07
-3.71598e-06
6.62377e-07
-4.19286e-06
8.04021e-07
-4.65337e-06
9.44287e-07
-5.09271e-06
1.07676e-06
-5.5048e-06
1.19442e-06
-5.88204e-06
1.28987e-06
-6.21505e-06
1.3556e-06
-6.49243e-06
1.38445e-06
-6.70055e-06
1.37026e-06
-6.8234e-06
1.3087e-06
-6.84257e-06
1.19829e-06
-6.73747e-06
1.0416e-06
-6.48589e-06
8.46441e-07
-6.06502e-06
6.26838e-07
-5.45312e-06
4.03504e-07
-4.63175e-06
2.03398e-07
-3.58849e-06
5.80266e-08
-2.31996e-06
-8.36037e-07
6.42262e-08
9.14936e-07
2.26881e-07
2.53596e-06
4.54686e-07
3.92179e-06
7.14834e-07
5.06015e-06
9.78076e-07
5.95097e-06
1.22071e-06
6.60391e-06
1.42555e-06
7.03632e-06
1.58194e-06
7.27083e-06
1.68512e-06
7.33291e-06
1.73515e-06
7.24876e-06
1.73567e-06
7.04369e-06
1.6928e-06
6.74101e-06
1.61406e-06
6.36143e-06
1.5076e-06
5.92277e-06
1.38156e-06
5.43992e-06
1.2437e-06
4.92508e-06
1.10106e-06
4.38795e-06
9.5988e-07
3.83613e-06
8.2552e-07
3.2754e-06
7.02444e-07
2.71006e-06
5.94268e-07
2.14324e-06
5.03808e-07
1.57713e-06
4.33137e-07
1.01327e-06
3.83647e-07
4.52706e-07
3.56089e-07
-1.0379e-07
3.50612e-07
-6.55584e-07
3.6679e-07
-1.20203e-06
4.0363e-07
-1.74232e-06
4.59571e-07
-2.27539e-06
5.32474e-07
-2.79979e-06
6.1961e-07
-3.31353e-06
7.17635e-07
-3.814e-06
8.22583e-07
-4.29781e-06
9.29869e-07
-4.76065e-06
1.03431e-06
-5.19715e-06
1.13022e-06
-5.60071e-06
1.21148e-06
-5.96331e-06
1.27182e-06
-6.27539e-06
1.30506e-06
-6.52567e-06
1.30557e-06
-6.70106e-06
1.26884e-06
-6.78667e-06
1.19217e-06
-6.7659e-06
1.0755e-06
-6.62079e-06
9.22245e-07
-6.33263e-06
7.40184e-07
-5.88296e-06
5.41985e-07
-5.25492e-06
3.45371e-07
-4.43513e-06
1.72556e-07
-3.41568e-06
4.88326e-08
-2.19624e-06
-7.87205e-07
5.60053e-08
8.58931e-07
1.99379e-07
2.39259e-06
4.02927e-07
3.71824e-06
6.39554e-07
4.82352e-06
8.84543e-07
5.70598e-06
1.11717e-06
6.37129e-06
1.32162e-06
6.83186e-06
1.48726e-06
7.10518e-06
1.60831e-06
7.21187e-06
1.68315e-06
7.17392e-06
1.71351e-06
7.01333e-06
1.70352e-06
6.751e-06
1.6589e-06
6.40606e-06
1.58623e-06
5.99544e-06
1.4924e-06
5.53375e-06
1.38419e-06
5.03329e-06
1.26795e-06
4.50419e-06
1.14945e-06
3.95463e-06
1.03377e-06
3.39109e-06
9.25215e-07
2.81862e-06
8.27372e-07
2.24108e-06
7.43092e-07
1.66141e-06
6.74541e-07
1.08182e-06
6.23229e-07
5.04017e-07
5.90055e-07
-7.06161e-08
5.75333e-07
-6.40861e-07
5.78811e-07
-1.2055e-06
5.99692e-07
-1.7632e-06
6.36631e-07
-2.31233e-06
6.87736e-07
-2.8509e-06
7.50567e-07
-3.37636e-06
8.22129e-07
-3.88556e-06
8.98877e-07
-4.37456e-06
9.7674e-07
-4.83852e-06
1.05117e-06
-5.27158e-06
1.11722e-06
-5.66676e-06
1.16969e-06
-6.01578e-06
1.20334e-06
-6.30904e-06
1.21318e-06
-6.5355e-06
1.19482e-06
-6.68271e-06
1.14501e-06
-6.73687e-06
1.0622e-06
-6.68308e-06
9.47118e-07
-6.50571e-06
8.03502e-07
-6.18902e-06
6.38583e-07
-5.71804e-06
4.63446e-07
-5.07979e-06
2.92989e-07
-4.26467e-06
1.45375e-07
-3.26807e-06
4.08836e-08
-2.09175e-06
-7.46321e-07
4.86839e-08
8.10247e-07
1.74429e-07
2.26684e-06
3.54929e-07
3.53774e-06
5.67783e-07
4.61066e-06
7.92192e-07
5.48158e-06
1.01023e-06
6.15324e-06
1.2077e-06
6.6344e-06
1.37441e-06
6.93847e-06
1.50418e-06
7.0821e-06
1.59434e-06
7.08376e-06
1.6452e-06
6.96247e-06
1.65932e-06
6.73688e-06
1.64089e-06
6.42448e-06
1.5951e-06
6.04123e-06
1.52764e-06
5.60122e-06
1.44428e-06
5.11664e-06
1.35064e-06
4.59784e-06
1.2519e-06
4.05337e-06
1.15274e-06
3.49025e-06
1.05723e-06
2.91413e-06
9.68807e-07
2.3295e-06
8.90279e-07
1.73994e-06
8.23828e-07
1.14827e-06
7.71041e-07
5.56804e-07
7.32932e-07
-3.25065e-08
7.09965e-07
-6.17894e-07
7.02075e-07
-1.19761e-06
7.08681e-07
-1.76981e-06
7.28695e-07
-2.33235e-06
7.60522e-07
-2.88272e-06
8.0207e-07
-3.41791e-06
8.50754e-07
-3.93425e-06
9.03511e-07
-4.42732e-06
9.56837e-07
-4.89184e-06
1.00684e-06
-5.32158e-06
1.04933e-06
-5.70925e-06
1.07996e-06
-6.04641e-06
1.09444e-06
-6.32351e-06
1.08874e-06
-6.5298e-06
1.05951e-06
-6.65347e-06
1.00441e-06
-6.68177e-06
9.22595e-07
-6.60127e-06
8.15216e-07
-6.39834e-06
6.85867e-07
-6.05967e-06
5.40961e-07
-5.57313e-06
3.89907e-07
-4.92873e-06
2.44999e-07
-4.11977e-06
1.20922e-07
-3.14399e-06
3.3845e-08
-2.00467e-06
-7.12476e-07
4.20357e-08
7.68211e-07
1.51416e-07
2.15746e-06
3.0985e-07
3.3793e-06
4.9886e-07
4.42165e-06
7.01046e-07
5.27939e-06
9.01085e-07
5.9532e-06
1.08644e-06
6.44904e-06
1.24772e-06
6.77718e-06
1.37873e-06
6.95109e-06
1.47623e-06
6.98626e-06
1.53953e-06
6.89917e-06
1.57001e-06
6.70639e-06
1.57061e-06
6.42389e-06
1.54528e-06
6.06655e-06
1.49861e-06
5.64788e-06
1.43544e-06
5.17982e-06
1.36058e-06
4.6727e-06
1.2786e-06
4.13535e-06
1.19371e-06
3.57514e-06
1.10964e-06
2.99819e-06
1.02963e-06
2.40952e-06
9.5634e-07
1.81322e-06
8.9193e-07
1.21268e-06
8.38007e-07
6.10727e-07
7.9567e-07
9.83051e-09
7.65519e-07
-5.87743e-07
7.47674e-07
-1.17977e-06
7.41782e-07
-1.76391e-06
7.47031e-07
-2.3376e-06
7.6216e-07
-2.89785e-06
7.85462e-07
-3.44121e-06
8.14801e-07
-3.96359e-06
8.4763e-07
-4.46015e-06
8.81033e-07
-4.92525e-06
9.11776e-07
-5.35233e-06
9.36404e-07
-5.73387e-06
9.5136e-07
-6.06137e-06
9.53165e-07
-6.32532e-06
9.38639e-07
-6.51528e-06
9.05181e-07
-6.62002e-06
8.51099e-07
-6.62769e-06
7.75969e-07
-6.52614e-06
6.81006e-07
-6.30337e-06
5.69402e-07
-5.94807e-06
4.46573e-07
-5.45031e-06
3.20247e-07
-4.80241e-06
2.00331e-07
-3.99985e-06
9.84962e-08
-3.04215e-06
2.74741e-08
-1.93365e-06
-6.85002e-07
3.58943e-08
7.32317e-07
1.29878e-07
2.06348e-06
2.67032e-07
3.24215e-06
4.32216e-07
4.25647e-06
6.11007e-07
5.1006e-06
7.90474e-07
5.77374e-06
9.59765e-07
6.27975e-06
1.11045e-06
6.62649e-06
1.23665e-06
6.8249e-06
1.33486e-06
6.88804e-06
1.4038e-06
6.83023e-06
1.44396e-06
6.66623e-06
1.45726e-06
6.41059e-06
1.44662e-06
6.07719e-06
1.41566e-06
5.67885e-06
1.36831e-06
5.22717e-06
1.30861e-06
4.7324e-06
1.2405e-06
4.20346e-06
1.16766e-06
3.64797e-06
1.09346e-06
3.0724e-06
1.02082e-06
2.48216e-06
9.52252e-07
1.88179e-06
8.89811e-07
1.27512e-06
8.3509e-07
6.65448e-07
7.8924e-07
5.56802e-08
7.52977e-07
-5.51481e-07
7.26594e-07
-1.15339e-06
7.0997e-07
-1.74729e-06
7.02582e-07
-2.33021e-06
7.03516e-07
-2.89879e-06
7.11471e-07
-3.44917e-06
7.24781e-07
-3.9769e-06
7.4143e-07
-4.4768e-06
7.59094e-07
-4.94291e-06
7.75186e-07
-5.36842e-06
7.86941e-07
-5.74563e-06
7.91522e-07
-6.06595e-06
7.86165e-07
-6.31996e-06
7.68366e-07
-6.49748e-06
7.36105e-07
-6.58776e-06
6.88109e-07
-6.57969e-06
6.24126e-07
-6.46216e-06
5.45212e-07
-6.22446e-06
4.53968e-07
-5.85682e-06
3.54716e-07
-5.35105e-06
2.53537e-07
-4.70123e-06
1.58147e-07
-3.90446e-06
7.75676e-08
-2.96158e-06
2.15911e-08
-1.87767e-06
-6.63411e-07
3.01351e-08
7.02182e-07
1.09461e-07
1.98415e-06
2.25956e-07
3.12565e-06
3.67372e-07
4.11505e-06
5.21927e-07
4.94604e-06
6.78896e-07
5.61677e-06
8.29082e-07
6.12957e-06
9.65131e-07
6.49045e-06
1.08166e-06
6.70838e-06
1.17521e-06
6.79449e-06
1.24415e-06
6.7613e-06
1.28834e-06
6.62204e-06
1.30892e-06
6.39001e-06
1.30796e-06
6.07814e-06
1.28821e-06
5.6986e-06
1.25278e-06
5.2626e-06
1.20497e-06
4.78021e-06
1.14807e-06
4.26035e-06
1.08526e-06
3.71079e-06
1.01943e-06
3.13822e-06
9.53221e-07
2.54837e-06
8.88901e-07
1.94611e-06
8.28384e-07
1.33564e-06
7.73213e-07
7.2062e-07
7.24558e-07
1.04335e-07
6.83227e-07
-5.1015e-07
6.49673e-07
-1.11983e-06
6.23999e-07
-1.72162e-06
6.05972e-07
-2.31218e-06
5.95028e-07
-2.88784e-06
5.90283e-07
-3.44442e-06
5.90544e-07
-3.97716e-06
5.94332e-07
-4.48058e-06
5.99903e-07
-4.94848e-06
6.05296e-07
-5.37381e-06
6.08397e-07
-5.74873e-06
6.07017e-07
-6.06457e-06
5.99016e-07
-6.31196e-06
5.82439e-07
-6.4809e-06
5.55697e-07
-6.56101e-06
5.17761e-07
-6.54175e-06
4.68377e-07
-6.41277e-06
4.08274e-07
-6.16436e-06
3.39345e-07
-5.78789e-06
2.64765e-07
-5.27647e-06
1.89015e-07
-4.62548e-06
1.17786e-07
-3.83323e-06
5.77293e-08
-2.90152e-06
1.60609e-08
-1.836e-06
-6.4735e-07
2.46624e-08
6.77519e-07
8.98898e-08
1.91892e-06
1.86207e-07
3.02934e-06
3.03927e-07
3.99733e-06
4.33645e-07
4.81633e-06
5.66682e-07
5.48373e-06
6.95452e-07
6.00079e-06
8.13729e-07
6.37217e-06
9.1678e-07
6.60533e-06
1.00139e-06
6.70988e-06
1.06575e-06
6.69693e-06
1.10936e-06
6.57844e-06
1.13273e-06
6.36664e-06
1.13725e-06
6.07362e-06
1.12489e-06
5.71096e-06
1.09804e-06
5.28945e-06
1.05931e-06
4.81895e-06
1.01134e-06
4.30831e-06
9.56772e-07
3.76536e-06
8.98063e-07
3.19693e-06
8.37477e-07
2.60895e-06
7.77027e-07
2.00656e-06
7.18452e-07
1.39421e-06
6.63202e-07
7.7587e-07
6.12439e-07
1.55098e-07
5.67037e-07
-4.64748e-07
5.27587e-07
-1.08038e-06
4.94405e-07
-1.68843e-06
4.6754e-07
-2.28532e-06
4.46775e-07
-2.86708e-06
4.31639e-07
-3.42929e-06
4.21414e-07
-3.96693e-06
4.15143e-07
-4.47431e-06
4.11657e-07
-4.94499e-06
4.09595e-07
-5.37175e-06
4.07451e-07
-5.74658e-06
4.03635e-07
-6.06075e-06
3.96548e-07
-6.30487e-06
3.84691e-07
-6.46905e-06
3.66788e-07
-6.54311e-06
3.4193e-07
-6.5169e-06
3.09734e-07
-6.38058e-06
2.70493e-07
-6.12511e-06
2.25309e-07
-5.74271e-06
1.76189e-07
-5.22735e-06
1.26064e-07
-4.57535e-06
7.87276e-08
-3.78589e-06
3.8665e-08
-2.86146e-06
1.07798e-08
-1.80812e-06
-6.3657e-07
1.94008e-08
6.58118e-07
7.09448e-08
1.86738e-06
1.4745e-07
2.95283e-06
2.41544e-07
3.90324e-06
3.46e-07
4.71187e-06
4.54057e-07
5.37568e-06
5.59693e-07
5.89516e-06
6.57841e-07
6.27402e-06
7.44517e-07
6.51865e-06
8.16862e-07
6.63754e-06
8.73108e-07
6.64069e-06
9.12485e-07
6.53906e-06
9.35085e-07
6.34404e-06
9.41704e-07
6.067e-06
9.33674e-07
5.71899e-06
9.12709e-07
5.31041e-06
8.80757e-07
4.8509e-06
8.39877e-07
4.34919e-06
7.92142e-07
3.8131e-06
7.39558e-07
3.24952e-06
6.84005e-07
2.66451e-06
6.27202e-07
2.06336e-06
5.70681e-07
1.45074e-06
5.15767e-07
8.30783e-07
4.63584e-07
2.07281e-07
4.15044e-07
-4.16208e-07
3.70859e-07
-1.0362e-06
3.31537e-07
-1.64911e-06
2.97393e-07
-2.25117e-06
2.6855e-07
-2.83823e-06
2.44939e-07
-3.40568e-06
2.26307e-07
-3.9483e-06
2.12216e-07
-4.46022e-06
2.02051e-07
-4.93483e-06
1.95033e-07
-5.36473e-06
1.90235e-07
-5.74179e-06
1.86619e-07
-6.05714e-06
1.83077e-07
-6.30133e-06
1.78496e-07
-6.46446e-06
1.71833e-07
-6.53645e-06
1.62216e-07
-6.50728e-06
1.49045e-07
-6.36741e-06
1.32105e-07
-6.10817e-06
1.11664e-07
-5.72227e-06
8.85502e-08
-5.20424e-06
6.41831e-08
-4.55099e-06
4.05533e-08
-3.76227e-06
2.01247e-08
-2.84103e-06
5.66661e-09
-1.79366e-06
-6.30903e-07
1.42889e-08
6.43829e-07
5.24446e-08
1.82922e-06
1.09401e-07
2.89587e-06
1.79928e-07
3.83271e-06
2.58833e-07
4.63296e-06
3.41175e-07
5.29333e-06
4.22455e-07
5.81388e-06
4.9878e-07
6.1977e-06
5.66973e-07
6.45046e-06
6.24634e-07
6.57988e-06
6.70135e-07
6.59519e-06
7.02585e-07
6.50661e-06
7.21749e-07
6.32487e-06
7.27947e-07
6.0608e-06
7.21948e-07
5.72499e-06
7.04855e-07
5.32751e-06
6.78003e-07
4.87775e-06
6.42865e-07
4.38433e-06
6.00974e-07
3.85499e-06
5.53863e-07
3.29663e-06
5.03014e-07
2.71535e-06
4.49828e-07
2.11655e-06
3.95597e-07
1.50497e-06
3.41497e-07
8.84883e-07
2.88582e-07
2.60197e-07
2.37777e-07
-3.65404e-07
1.89887e-07
-9.88305e-07
1.45593e-07
-1.60482e-06
1.0546e-07
-2.21104e-06
6.99324e-08
-2.80271e-06
3.93338e-08
-3.37508e-06
1.38638e-08
-3.92283e-06
-6.40944e-09
-4.43995e-06
-2.15561e-08
-4.91968e-06
-3.17914e-08
-5.3545e-06
-3.74794e-08
-5.7361e-06
-3.91319e-08
-6.05549e-06
-3.73989e-08
-6.30306e-06
-3.30482e-08
-6.46881e-06
-2.69312e-08
-6.54257e-06
-1.99356e-08
-6.51427e-06
-1.2923e-08
-6.37442e-06
-6.65866e-09
-6.11444e-06
-1.73573e-09
-5.72719e-06
1.49255e-09
-5.20747e-06
2.9633e-09
-4.55246e-06
2.92337e-09
-3.76223e-06
1.90565e-09
-2.84001e-06
6.56004e-10