/*--------------------------------*- C++ -*----------------------------------*\
  =========                 |
  \\      /  F ield         | OpenFOAM: The Open Source CFD Toolbox
   \\    /   O peration     | Website:  https://openfoam.org
    \\  /    A nd           | Version:  7
     \\/     M anipulation  |
\*---------------------------------------------------------------------------*/
FoamFile
{
    version     2.0;
    format      ascii;
    class       surfaceScalarField;
    location    "0.068";
    object      phi;
}
// * * * * * * * * * * * * * * * * * * * * * * * * * * * * * * * * * * * * * //

dimensions      [0 3 -1 0 0 0 0];

internalField   nonuniform List<scalar> 
4900
(
1.12922e-09
-1.13113e-09
2.28893e-09
-1.15964e-09
2.34852e-09
-5.97138e-11
9.11329e-10
1.43709e-09
-2.10141e-09
3.01271e-09
-6.606e-09
4.50459e-09
-1.24393e-08
5.83329e-09
-1.94026e-08
6.96325e-09
-2.72842e-08
7.8816e-09
-3.5871e-08
8.58684e-09
-4.49548e-08
9.08375e-09
-5.43355e-08
9.3807e-09
-6.38238e-08
9.48823e-09
-7.32419e-08
9.41809e-09
-8.24248e-08
9.18284e-09
-9.12202e-08
8.79541e-09
-9.94892e-08
8.26898e-09
-1.07106e-07
7.61687e-09
-1.13959e-07
6.85243e-09
-1.19948e-07
5.98909e-09
-1.24988e-07
5.04031e-09
-1.29008e-07
4.01975e-09
-1.31949e-07
2.94123e-09
-1.33768e-07
1.81889e-09
-1.34435e-07
6.67189e-10
-1.33936e-07
-4.98987e-10
-1.32272e-07
-1.66431e-09
-1.29459e-07
-2.81298e-09
-1.2553e-07
-3.92873e-09
-1.20535e-07
-4.99485e-09
-1.14541e-07
-5.99429e-09
-1.07631e-07
-6.90977e-09
-9.99072e-08
-7.72389e-09
-9.14877e-08
-8.41941e-09
-8.25084e-08
-8.97938e-09
-7.31209e-08
-9.38749e-09
-6.34925e-08
-9.62833e-09
-5.38048e-08
-9.68774e-09
-4.42516e-08
-9.55321e-09
-3.50373e-08
-9.21431e-09
-2.63739e-08
-8.66333e-09
-1.84778e-08
-7.89611e-09
-1.15644e-08
-6.91345e-09
-5.84084e-09
-5.72353e-09
-1.49387e-09
-4.34697e-09
1.3344e-09
-2.82826e-09
2.58851e-09
-1.25412e-09
2.3674e-09
2.21096e-10
1.12776e-09
1.23964e-09
1.12776e-09
1.17105e-09
-2.3021e-09
1.30276e-09
-1.29161e-09
-1.23786e-09
2.48082e-09
-7.22139e-09
7.42078e-09
-1.68791e-08
1.26706e-08
-3.01022e-08
1.77278e-08
-4.65783e-08
2.23094e-08
-6.58783e-08
2.62632e-08
-8.7511e-08
2.95143e-08
-1.10958e-07
3.20336e-08
-1.35695e-07
3.38205e-08
-1.61206e-07
3.48923e-08
-1.86996e-07
3.52777e-08
-2.12591e-07
3.50133e-08
-2.37548e-07
3.41404e-08
-2.61457e-07
3.27036e-08
-2.83937e-07
3.07496e-08
-3.04647e-07
2.83263e-08
-3.23277e-07
2.54828e-08
-3.39557e-07
2.2269e-08
-3.53252e-07
1.87353e-08
-3.64165e-07
1.49333e-08
-3.72139e-07
1.09151e-08
-3.77055e-07
6.73434e-09
-3.78833e-07
2.44563e-09
-3.77437e-07
-1.89475e-09
-3.72873e-07
-6.22904e-09
-3.65188e-07
-1.04979e-08
-3.54476e-07
-1.46404e-08
-3.40876e-07
-1.85945e-08
-3.24574e-07
-2.22971e-08
-3.05799e-07
-2.56843e-08
-2.8483e-07
-2.86928e-08
-2.6199e-07
-3.12597e-08
-2.37645e-07
-3.33243e-08
-2.12204e-07
-3.48283e-08
-1.86115e-07
-3.57179e-08
-1.59858e-07
-3.59448e-08
-1.33943e-07
-3.54679e-08
-1.08901e-07
-3.42558e-08
-8.52756e-08
-3.22892e-08
-6.36068e-08
-2.95649e-08
-4.44182e-08
-2.61021e-08
-2.81902e-08
-2.19516e-08
-1.53245e-08
-1.72126e-08
-6.0912e-09
-1.20616e-08
-5.42579e-10
-6.80271e-09
1.63428e-09
-1.95575e-09
1.25105e-09
1.62288e-09
2.3788e-09
1.1906e-10
-2.4213e-09
-2.37463e-09
1.20192e-09
-9.05352e-09
9.15968e-09
-2.07088e-08
1.90761e-08
-3.75831e-08
2.95449e-08
-5.95312e-08
3.96759e-08
-8.61404e-08
4.89187e-08
-1.16827e-07
5.69494e-08
-1.50902e-07
6.35898e-08
-1.87624e-07
6.87552e-08
-2.26227e-07
7.24233e-08
-2.65948e-07
7.46135e-08
-3.06044e-07
7.53734e-08
-3.458e-07
7.47698e-08
-3.84542e-07
7.28827e-08
-4.2164e-07
6.98014e-08
-4.56512e-07
6.56213e-08
-4.88628e-07
6.04421e-08
-5.17512e-07
5.43669e-08
-5.42744e-07
4.75012e-08
-5.63962e-07
3.99529e-08
-5.8086e-07
3.1832e-08
-5.93196e-07
2.32508e-08
-6.00786e-07
1.43241e-08
-6.0351e-07
5.1696e-09
-6.01313e-07
-4.09191e-09
-5.94205e-07
-1.33366e-08
-5.82265e-07
-2.24376e-08
-5.65641e-07
-3.12651e-08
-5.44548e-07
-3.96869e-08
-5.19276e-07
-4.75692e-08
-4.90183e-07
-5.47777e-08
-4.57697e-07
-6.11787e-08
-4.22315e-07
-6.66412e-08
-3.84601e-07
-7.10388e-08
-3.45177e-07
-7.42519e-08
-3.04724e-07
-7.6171e-08
-2.63969e-07
-7.66996e-08
-2.23679e-07
-7.57586e-08
-1.84643e-07
-7.32909e-08
-1.47665e-07
-6.92681e-08
-1.13531e-07
-6.36987e-08
-8.29918e-08
-5.66411e-08
-5.67214e-08
-4.8222e-08
-3.5268e-08
-3.8666e-08
-1.8987e-08
-2.83426e-08
-7.94725e-09
-1.78424e-08
-1.81932e-09
-8.08368e-09
2.83062e-10
-4.79505e-10
2.66187e-09
-1.33726e-09
-1.0841e-09
-7.24104e-09
7.10583e-09
-1.89049e-08
2.08236e-08
-3.69257e-08
3.7097e-08
-6.14335e-08
5.40528e-08
-9.21856e-08
7.04279e-08
-1.28661e-07
8.5394e-08
-1.70144e-07
9.84326e-08
-2.15792e-07
1.09238e-07
-2.64687e-07
1.1765e-07
-3.15874e-07
1.2361e-07
-3.68393e-07
1.27133e-07
-4.213e-07
1.28281e-07
-4.73684e-07
1.27154e-07
-5.24679e-07
1.23877e-07
-5.73471e-07
1.18593e-07
-6.19307e-07
1.11458e-07
-6.61501e-07
1.02635e-07
-6.99432e-07
9.22984e-08
-7.32555e-07
8.0624e-08
-7.60396e-07
6.77944e-08
-7.8256e-07
5.3996e-08
-7.98729e-07
3.94196e-08
-8.08666e-07
2.42605e-08
-8.12215e-07
8.71892e-09
-8.09307e-07
-6.99999e-09
-7.99957e-07
-2.2686e-08
-7.84271e-07
-3.8124e-08
-7.62442e-07
-5.30945e-08
-7.34754e-07
-6.73744e-08
-7.01585e-07
-8.07387e-08
-6.634e-07
-9.29619e-08
-6.20758e-07
-1.03821e-07
-5.74302e-07
-1.13097e-07
-5.24759e-07
-1.20582e-07
-4.72932e-07
-1.26078e-07
-4.19695e-07
-1.29408e-07
-3.65977e-07
-1.30418e-07
-3.12753e-07
-1.28983e-07
-2.61025e-07
-1.25019e-07
-2.11799e-07
-1.18494e-07
-1.6606e-07
-1.09437e-07
-1.24737e-07
-9.79646e-08
-8.86574e-08
-8.43014e-08
-5.84976e-08
-6.88258e-08
-3.47128e-08
-5.21274e-08
-1.74576e-08
-3.50977e-08
-6.49593e-09
-1.90453e-08
-1.11839e-09
-5.85707e-09
1.54349e-09
-2.8952e-09
1.81109e-09
-1.25462e-08
1.6757e-08
-2.96156e-08
3.78931e-08
-5.4387e-08
6.18685e-08
-8.67795e-08
8.64453e-08
-1.26393e-07
1.10042e-07
-1.72572e-07
1.31573e-07
-2.24467e-07
1.50327e-07
-2.81095e-07
1.65866e-07
-3.41389e-07
1.77943e-07
-4.04237e-07
1.86458e-07
-4.68517e-07
1.91413e-07
-5.3312e-07
1.92884e-07
-5.96972e-07
1.91006e-07
-6.59046e-07
1.85951e-07
-7.18376e-07
1.77924e-07
-7.74068e-07
1.67149e-07
-8.25299e-07
1.53867e-07
-8.71331e-07
1.3833e-07
-9.11509e-07
1.20802e-07
-9.45268e-07
1.01553e-07
-9.72133e-07
8.08612e-08
-9.91725e-07
5.90111e-08
-1.00376e-06
3.62948e-08
-1.00805e-06
1.30116e-08
-1.00452e-06
-1.05318e-08
-9.93184e-07
-3.40217e-08
-9.74171e-07
-5.71373e-08
-9.47714e-07
-7.95517e-08
-9.14155e-07
-1.00934e-07
-8.73944e-07
-1.20949e-07
-8.27641e-07
-1.39265e-07
-7.7591e-07
-1.55552e-07
-7.19518e-07
-1.69489e-07
-6.59329e-07
-1.8077e-07
-5.96298e-07
-1.89109e-07
-5.31458e-07
-1.94249e-07
-4.65906e-07
-1.95969e-07
-4.00792e-07
-1.94097e-07
-3.37289e-07
-1.88521e-07
-2.76577e-07
-1.79206e-07
-2.19804e-07
-1.6621e-07
-1.68053e-07
-1.49716e-07
-1.22295e-07
-1.3006e-07
-8.33369e-08
-1.07784e-07
-5.17655e-08
-8.36988e-08
-2.78814e-08
-5.89817e-08
-1.16431e-08
-3.52837e-08
-2.62456e-09
-1.48756e-08
-1.08108e-09
-4.43243e-09
6.24352e-09
-1.79027e-08
3.02273e-08
-4.05269e-08
6.05173e-08
-7.22106e-08
9.35522e-08
-1.126e-07
1.26835e-07
-1.6109e-07
1.58531e-07
-2.16857e-07
1.8734e-07
-2.78905e-07
2.12375e-07
-3.4611e-07
2.33071e-07
-4.17266e-07
2.491e-07
-4.91123e-07
2.60315e-07
-5.66417e-07
2.66706e-07
-6.41899e-07
2.68366e-07
-7.16357e-07
2.65463e-07
-7.8863e-07
2.58225e-07
-8.57626e-07
2.46919e-07
-9.22326e-07
2.31849e-07
-9.81799e-07
2.1334e-07
-1.0352e-06
1.91735e-07
-1.08179e-06
1.67393e-07
-1.12093e-06
1.40687e-07
-1.15206e-06
1.11997e-07
-1.17477e-06
8.1716e-08
-1.18872e-06
5.0246e-08
-1.19371e-06
1.79993e-08
-1.18964e-06
-1.4602e-08
-1.17653e-06
-4.7126e-08
-1.15454e-06
-7.91315e-08
-1.12392e-06
-1.1017e-07
-1.08507e-06
-1.39787e-07
-1.03849e-06
-1.67525e-07
-9.8483e-07
-1.92928e-07
-9.24834e-07
-2.15548e-07
-8.59375e-07
-2.34948e-07
-7.89433e-07
-2.50712e-07
-7.16088e-07
-2.62454e-07
-6.40508e-07
-2.69829e-07
-5.63934e-07
-2.72543e-07
-4.8766e-07
-2.7037e-07
-4.13014e-07
-2.63168e-07
-3.41322e-07
-2.50897e-07
-2.73883e-07
-2.3365e-07
-2.11925e-07
-2.11674e-07
-1.56564e-07
-1.85421e-07
-1.08757e-07
-1.55591e-07
-6.92531e-08
-1.23202e-07
-3.85506e-08
-8.96842e-08
-1.68634e-08
-5.69709e-08
-4.11705e-09
-2.76219e-08
-5.19813e-09
-5.90022e-09
1.21438e-08
-2.31321e-08
4.74592e-08
-5.13004e-08
8.86857e-08
-8.99146e-08
1.32166e-07
-1.38314e-07
1.75235e-07
-1.95654e-07
2.15871e-07
-2.60916e-07
2.52602e-07
-3.32938e-07
2.84397e-07
-4.10447e-07
3.1058e-07
-4.92099e-07
3.30752e-07
-5.76511e-07
3.44727e-07
-6.62291e-07
3.52487e-07
-7.48068e-07
3.54143e-07
-8.32507e-07
3.49903e-07
-9.14334e-07
3.40052e-07
-9.92346e-07
3.24931e-07
-1.06542e-06
3.04927e-07
-1.13254e-06
2.80456e-07
-1.19277e-06
2.51964e-07
-1.24529e-06
2.19914e-07
-1.28939e-06
1.84789e-07
-1.32448e-06
1.47084e-07
-1.35007e-06
1.07311e-07
-1.36582e-06
6.59912e-08
-1.37148e-06
2.36628e-08
-1.36696e-06
-1.91251e-08
-1.35228e-06
-6.18105e-08
-1.32759e-06
-1.0382e-07
-1.29319e-06
-1.44571e-07
-1.2495e-06
-1.83473e-07
-1.19709e-06
-2.19934e-07
-1.13666e-06
-2.53363e-07
-1.06902e-06
-2.8318e-07
-9.95151e-07
-3.0882e-07
-9.16115e-07
-3.29748e-07
-8.33101e-07
-3.45468e-07
-7.47395e-07
-3.55536e-07
-6.60361e-07
-3.59577e-07
-5.73425e-07
-3.57307e-07
-4.88048e-07
-3.48545e-07
-4.05698e-07
-3.33247e-07
-3.27816e-07
-3.11531e-07
-2.55779e-07
-2.83711e-07
-1.90859e-07
-2.50341e-07
-1.34184e-07
-2.12266e-07
-8.66959e-08
-1.7069e-07
-4.91252e-08
-1.27255e-07
-2.19762e-08
-8.41199e-08
-5.54579e-09
-4.40522e-08
-1.07439e-08
-7.28852e-09
1.94323e-08
-2.81719e-08
6.83425e-08
-6.17947e-08
1.22308e-07
-1.07278e-07
1.7765e-07
-1.63642e-07
2.31599e-07
-2.2978e-07
2.82009e-07
-3.04456e-07
3.27278e-07
-3.86324e-07
3.66265e-07
-4.73953e-07
3.98209e-07
-5.65854e-07
4.22653e-07
-6.60514e-07
4.39386e-07
-7.56418e-07
4.48391e-07
-8.52079e-07
4.49804e-07
-9.46056e-07
4.4388e-07
-1.03697e-06
4.30968e-07
-1.12353e-06
4.1149e-07
-1.20453e-06
3.85921e-07
-1.27885e-06
3.54779e-07
-1.3455e-06
3.18617e-07
-1.4036e-06
2.78012e-07
-1.45237e-06
2.33565e-07
-1.49119e-06
1.85896e-07
-1.51952e-06
1.35642e-07
-1.53698e-06
8.34559e-08
-1.54333e-06
3.00088e-08
-1.53844e-06
-2.40133e-08
-1.52234e-06
-7.79088e-08
-1.4952e-06
-1.30962e-07
-1.45732e-06
-1.82446e-07
-1.40917e-06
-2.31626e-07
-1.35134e-06
-2.77761e-07
-1.28459e-06
-3.20118e-07
-1.2098e-06
-3.57972e-07
-1.12799e-06
-3.90622e-07
-1.04034e-06
-4.17401e-07
-9.48118e-07
-4.37692e-07
-8.52708e-07
-4.50945e-07
-7.55589e-07
-4.56696e-07
-6.58308e-07
-4.54588e-07
-5.62453e-07
-4.444e-07
-4.6963e-07
-4.26071e-07
-3.81424e-07
-3.99737e-07
-2.9937e-07
-3.65765e-07
-2.2491e-07
-3.24801e-07
-1.59362e-07
-2.77814e-07
-1.03887e-07
-2.26166e-07
-5.94696e-08
-1.71672e-07
-2.69203e-08
-1.16669e-07
-6.8997e-09
-6.40729e-08
-1.76436e-08
-8.60466e-09
2.8037e-08
-3.30194e-08
9.27572e-08
-7.19803e-08
1.61269e-07
-1.24239e-07
2.29908e-07
-1.88495e-07
2.95855e-07
-2.63368e-07
3.56882e-07
-3.47389e-07
4.11299e-07
-4.39016e-07
4.57891e-07
-5.36644e-07
4.95837e-07
-6.38635e-07
5.24644e-07
-7.4334e-07
5.44091e-07
-8.49125e-07
5.54176e-07
-9.54392e-07
5.55071e-07
-1.0576e-06
5.47088e-07
-1.15728e-06
5.3065e-07
-1.25205e-06
5.06263e-07
-1.34064e-06
4.74502e-07
-1.42185e-06
4.35994e-07
-1.49464e-06
3.91405e-07
-1.55806e-06
3.41435e-07
-1.61131e-06
2.8681e-07
-1.65369e-06
2.28279e-07
-1.68466e-06
1.66614e-07
-1.70381e-06
1.02606e-07
-1.71087e-06
3.70662e-08
-1.70571e-06
-2.9175e-08
-1.68835e-06
-9.5269e-08
-1.65896e-06
-1.6035e-07
-1.61787e-06
-2.23539e-07
-1.56555e-06
-2.83946e-07
-1.50263e-06
-3.40677e-07
-1.42991e-06
-3.92842e-07
-1.34831e-06
-4.39565e-07
-1.25894e-06
-4.79997e-07
-1.16301e-06
-5.13329e-07
-1.06189e-06
-5.38812e-07
-9.57057e-07
-5.55779e-07
-8.50089e-07
-5.63664e-07
-7.42647e-07
-5.6203e-07
-6.36448e-07
-5.50599e-07
-5.33233e-07
-5.29285e-07
-4.34744e-07
-4.98227e-07
-3.42679e-07
-4.5783e-07
-2.58669e-07
-4.08811e-07
-1.84239e-07
-3.52244e-07
-1.20786e-07
-2.89618e-07
-6.95675e-08
-2.22891e-07
-3.16987e-08
-1.54538e-07
-8.18724e-09
-8.75843e-08
-2.58309e-08
-9.86246e-09
3.78994e-08
-3.77016e-08
1.20596e-07
-8.18882e-08
2.05456e-07
-1.40826e-07
2.88846e-07
-2.129e-07
3.67928e-07
-2.9645e-07
4.40432e-07
-3.89767e-07
5.04616e-07
-4.91095e-07
5.59219e-07
-5.98649e-07
6.03391e-07
-7.10632e-07
6.36627e-07
-8.25257e-07
6.58716e-07
-9.40767e-07
6.69687e-07
-1.05546e-06
6.69762e-07
-1.16769e-06
6.59322e-07
-1.27591e-06
6.38873e-07
-1.37867e-06
6.09019e-07
-1.47461e-06
5.70441e-07
-1.5625e-06
5.23882e-07
-1.64122e-06
4.70129e-07
-1.7098e-06
4.1001e-07
-1.76737e-06
3.44384e-07
-1.81323e-06
2.74135e-07
-1.84679e-06
2.00176e-07
-1.86762e-06
1.2344e-07
-1.87544e-06
4.48834e-08
-1.8701e-06
-3.45126e-08
-1.85162e-06
-1.13747e-07
-1.82018e-06
-1.91798e-07
-1.77609e-06
-2.67628e-07
-1.71985e-06
-3.40185e-07
-1.65211e-06
-4.08413e-07
-1.5737e-06
-4.71258e-07
-1.48558e-06
-5.27683e-07
-1.3889e-06
-5.7668e-07
-1.28494e-06
-6.17287e-07
-1.17514e-06
-6.48615e-07
-1.06105e-06
-6.69862e-07
-9.44367e-07
-6.80349e-07
-8.26853e-07
-6.79544e-07
-7.10353e-07
-6.671e-07
-5.96753e-07
-6.42885e-07
-4.87955e-07
-6.07025e-07
-3.85837e-07
-5.59947e-07
-2.92232e-07
-5.02416e-07
-2.08889e-07
-4.35587e-07
-1.37457e-07
-3.6105e-07
-7.94686e-08
-2.80879e-07
-3.63468e-08
-1.9766e-07
-9.42461e-09
-1.14506e-07
-3.52555e-08
-1.10776e-08
4.8977e-08
-4.2258e-08
1.51777e-07
-9.15804e-08
2.54778e-07
-1.5712e-07
3.54386e-07
-2.36952e-07
4.47761e-07
-3.29139e-07
5.32618e-07
-4.31719e-07
6.07196e-07
-5.4272e-07
6.7022e-07
-6.60163e-07
7.20834e-07
-7.82087e-07
7.58551e-07
-9.0656e-07
7.83189e-07
-1.0317e-06
7.94828e-07
-1.1557e-06
7.93758e-07
-1.27682e-06
7.80444e-07
-1.39343e-06
7.55487e-07
-1.50401e-06
7.19599e-07
-1.60715e-06
6.73577e-07
-1.70155e-06
6.18288e-07
-1.78607e-06
5.54649e-07
-1.85968e-06
4.8362e-07
-1.9215e-06
4.06199e-07
-1.97078e-06
3.23412e-07
-2.00691e-06
2.36312e-07
-2.02945e-06
1.45981e-07
-2.03809e-06
5.35254e-08
-2.03269e-06
-3.99211e-08
-2.01323e-06
-1.33201e-07
-1.9799e-06
-2.25132e-07
-1.93302e-06
-3.14512e-07
-1.87308e-06
-4.00123e-07
-1.80075e-06
-4.80739e-07
-1.71688e-06
-5.55135e-07
-1.62246e-06
-6.22103e-07
-1.51867e-06
-6.80466e-07
-1.40686e-06
-7.291e-07
-1.28851e-06
-7.66957e-07
-1.16529e-06
-7.9309e-07
-1.03894e-06
-8.0669e-07
-9.11376e-07
-8.07113e-07
-7.84554e-07
-7.93922e-07
-6.60515e-07
-7.66924e-07
-5.41329e-07
-7.26211e-07
-4.29072e-07
-6.72205e-07
-3.25787e-07
-6.05701e-07
-2.33465e-07
-5.27909e-07
-1.54016e-07
-4.40499e-07
-8.92585e-08
-3.45637e-07
-4.09158e-08
-2.46003e-07
-1.06306e-08
-1.44792e-07
-4.58861e-08
-1.22654e-08
6.12424e-08
-4.67327e-08
1.86244e-07
-1.01132e-07
3.09177e-07
-1.73224e-07
4.26478e-07
-2.60782e-07
5.3532e-07
-3.61587e-07
6.33423e-07
-4.73425e-07
7.19034e-07
-5.94093e-07
7.90888e-07
-7.21418e-07
8.48158e-07
-8.53262e-07
8.90394e-07
-9.87545e-07
9.17473e-07
-1.12226e-06
9.29544e-07
-1.25549e-06
9.26986e-07
-1.38541e-06
9.10361e-07
-1.5103e-06
8.80385e-07
-1.62859e-06
8.37887e-07
-1.73881e-06
7.83793e-07
-1.83962e-06
7.191e-07
-1.92984e-06
6.44864e-07
-2.0084e-06
5.62184e-07
-2.0744e-06
4.722e-07
-2.12707e-06
3.76081e-07
-2.16579e-06
2.75028e-07
-2.19008e-06
1.70272e-07
-2.19962e-06
6.30712e-08
-2.19426e-06
-4.52867e-08
-2.17397e-06
-1.53485e-07
-2.13893e-06
-2.60178e-07
-2.08944e-06
-3.63997e-07
-2.02601e-06
-4.63552e-07
-1.94931e-06
-5.57443e-07
-1.86018e-06
-6.44265e-07
-1.75965e-06
-7.22632e-07
-1.64893e-06
-7.91187e-07
-1.5294e-06
-8.48628e-07
-1.40262e-06
-8.93736e-07
-1.27031e-06
-9.25403e-07
-1.13433e-06
-9.42671e-07
-9.96678e-07
-9.44764e-07
-8.59466e-07
-9.31134e-07
-7.24887e-07
-9.01503e-07
-5.95193e-07
-8.55905e-07
-4.72663e-07
-7.94735e-07
-3.59571e-07
-7.18793e-07
-2.58159e-07
-6.29321e-07
-1.70613e-07
-5.28046e-07
-9.90395e-08
-4.1721e-07
-4.54628e-08
-2.99579e-07
-1.18243e-08
-1.7843e-07
-5.77104e-08
-1.34402e-08
7.46825e-08
-5.11691e-08
2.23973e-07
-1.1062e-07
3.68629e-07
-1.8925e-07
5.05107e-07
-2.84532e-07
6.30602e-07
-3.93966e-07
7.42857e-07
-5.15077e-07
8.40145e-07
-6.45432e-07
9.21243e-07
-7.82649e-07
9.85375e-07
-9.24413e-07
1.03216e-06
-1.06849e-06
1.06155e-06
-1.21275e-06
1.0738e-06
-1.35515e-06
1.06939e-06
-1.49379e-06
1.049e-06
-1.62689e-06
1.01348e-06
-1.75279e-06
9.63789e-07
-1.86999e-06
9.00991e-07
-1.97712e-06
8.26227e-07
-2.07295e-06
7.40694e-07
-2.1564e-06
6.45639e-07
-2.22655e-06
5.42346e-07
-2.2826e-06
4.32132e-07
-2.32392e-06
3.16347e-07
-2.35001e-06
1.9637e-07
-2.36055e-06
7.36111e-08
-2.35535e-06
-5.04857e-08
-2.33439e-06
-1.74445e-07
-2.29782e-06
-2.96758e-07
-2.24593e-06
-4.15885e-07
-2.17921e-06
-5.30264e-07
-2.09834e-06
-6.38313e-07
-2.00416e-06
-7.38445e-07
-1.89771e-06
-8.29082e-07
-1.78022e-06
-9.08678e-07
-1.65311e-06
-9.75741e-07
-1.51798e-06
-1.02886e-06
-1.37662e-06
-1.06676e-06
-1.23099e-06
-1.0883e-06
-1.08321e-06
-1.09255e-06
-9.35507e-07
-1.07883e-06
-7.90255e-07
-1.04675e-06
-6.49893e-07
-9.96267e-07
-5.16917e-07
-9.27711e-07
-3.93846e-07
-8.41865e-07
-2.83186e-07
-7.3998e-07
-1.87409e-07
-6.23823e-07
-1.0892e-07
-4.95699e-07
-5.00462e-08
-3.58453e-07
-1.30244e-08
-2.15452e-07
-7.07348e-08
-1.46149e-08
8.92974e-08
-5.56083e-08
2.64966e-07
-1.20122e-07
4.33143e-07
-2.0531e-07
5.90294e-07
-3.08347e-07
7.33639e-07
-4.26447e-07
8.60956e-07
-5.56871e-07
9.7057e-07
-6.96948e-07
1.06132e-06
-8.44082e-07
1.13251e-06
-9.95775e-07
1.18385e-06
-1.14964e-06
1.21541e-06
-1.3034e-06
1.22756e-06
-1.45493e-06
1.22092e-06
-1.60222e-06
1.1963e-06
-1.74343e-06
1.15469e-06
-1.87685e-06
1.09721e-06
-2.00094e-06
1.02507e-06
-2.11428e-06
9.39573e-07
-2.21565e-06
8.42057e-07
-2.30393e-06
7.33921e-07
-2.37818e-06
6.16599e-07
-2.43761e-06
4.91557e-07
-2.48155e-06
3.60293e-07
-2.50952e-06
2.24335e-07
-2.52115e-06
8.52436e-08
-2.51625e-06
-5.53843e-08
-2.49478e-06
-1.95915e-07
-2.45686e-06
-3.34677e-07
-2.40278e-06
-4.69964e-07
-2.33301e-06
-6.00034e-07
-2.2482e-06
-7.23122e-07
-2.1492e-06
-8.37452e-07
-2.03703e-06
-9.4125e-07
-1.91294e-06
-1.03276e-06
-1.77838e-06
-1.1103e-06
-1.635e-06
-1.17225e-06
-1.48464e-06
-1.21712e-06
-1.32936e-06
-1.24358e-06
-1.17137e-06
-1.25054e-06
-1.01308e-06
-1.23713e-06
-8.56996e-07
-1.20283e-06
-7.05778e-07
-1.14748e-06
-5.62148e-07
-1.07134e-06
-4.2888e-07
-9.75132e-07
-3.08764e-07
-8.60096e-07
-2.04569e-07
-7.28019e-07
-1.19009e-07
-5.81258e-07
-5.47233e-08
-4.22739e-07
-1.42482e-08
-2.55927e-07
-8.4983e-08
-1.58009e-08
1.05098e-07
-6.00876e-08
3.09253e-07
-1.29708e-07
5.02762e-07
-2.21508e-07
6.82094e-07
-3.32362e-07
8.44494e-07
-4.59192e-07
9.87787e-07
-5.98989e-07
1.11037e-06
-7.48835e-07
1.21116e-06
-9.05917e-07
1.28959e-06
-1.06755e-06
1.34548e-06
-1.23118e-06
1.37904e-06
-1.3944e-06
1.39079e-06
-1.55499e-06
1.3815e-06
-1.71084e-06
1.35215e-06
-1.86006e-06
1.3039e-06
-2.00088e-06
1.23803e-06
-2.13173e-06
1.15592e-06
-2.25118e-06
1.05903e-06
-2.35797e-06
9.4885e-07
-2.451e-06
8.26949e-07
-2.52931e-06
6.94906e-07
-2.59209e-06
5.54338e-07
-2.63868e-06
4.06887e-07
-2.66858e-06
2.54229e-07
-2.68141e-06
9.80719e-08
-2.67695e-06
-5.98383e-08
-2.65515e-06
-2.17714e-07
-2.61611e-06
-3.73724e-07
-2.56008e-06
-5.25992e-07
-2.48751e-06
-6.72604e-07
-2.39902e-06
-8.11608e-07
-2.29544e-06
-9.41031e-07
-2.1778e-06
-1.05889e-06
-2.04733e-06
-1.16323e-06
-1.9055e-06
-1.25214e-06
-1.75398e-06
-1.32376e-06
-1.5947e-06
-1.3764e-06
-1.42977e-06
-1.40851e-06
-1.26154e-06
-1.41877e-06
-1.09253e-06
-1.40614e-06
-9.25464e-07
-1.3699e-06
-7.63182e-07
-1.30977e-06
-6.08658e-07
-1.22587e-06
-4.64938e-07
-1.11885e-06
-3.35108e-07
-9.89926e-07
-2.22252e-07
-8.40875e-07
-1.29412e-07
-6.74098e-07
-5.95487e-08
-4.92602e-07
-1.5512e-08
-2.99964e-07
-1.00495e-07
-1.70084e-08
1.22107e-07
-6.46408e-08
3.56885e-07
-1.39441e-07
5.77562e-07
-2.37941e-07
7.80595e-07
-3.56703e-07
9.63256e-07
-4.9235e-07
1.12343e-06
-6.41594e-07
1.25961e-06
-8.01262e-07
1.37083e-06
-9.68317e-07
1.45665e-06
-1.13988e-06
1.51705e-06
-1.31324e-06
1.5524e-06
-1.48586e-06
1.56341e-06
-1.65539e-06
1.55103e-06
-1.81968e-06
1.51644e-06
-1.97675e-06
1.46097e-06
-2.12482e-06
1.3861e-06
-2.26227e-06
1.29337e-06
-2.38767e-06
1.18443e-06
-2.49975e-06
1.06094e-06
-2.59741e-06
9.24609e-07
-2.67969e-06
7.77188e-07
-2.74579e-06
6.20433e-07
-2.79504e-06
4.56134e-07
-2.82691e-06
2.86106e-07
-2.84104e-06
1.12201e-07
-2.83719e-06
-6.36939e-08
-2.81526e-06
-2.39641e-07
-2.77533e-06
-4.13655e-07
-2.71762e-06
-5.83698e-07
-2.64255e-06
-7.47678e-07
-2.5507e-06
-9.03459e-07
-2.44286e-06
-1.04887e-06
-2.32003e-06
-1.18172e-06
-2.18345e-06
-1.29982e-06
-2.03458e-06
-1.40101e-06
-1.87511e-06
-1.48323e-06
-1.70702e-06
-1.5445e-06
-1.5325e-06
-1.58303e-06
-1.354e-06
-1.59727e-06
-1.17419e-06
-1.58594e-06
-9.95973e-07
-1.54812e-06
-8.22412e-07
-1.48333e-06
-6.56732e-07
-1.39154e-06
-5.02269e-07
-1.27332e-06
-3.62423e-07
-1.12977e-06
-2.40614e-07
-9.62684e-07
-1.40228e-07
-7.74484e-07
-6.4574e-08
-5.68256e-07
-1.68312e-08
-3.47706e-07
-1.17326e-07
-1.82463e-08
1.40353e-07
-6.92981e-08
4.07937e-07
-1.4938e-07
6.57644e-07
-2.54696e-07
8.85911e-07
-3.81483e-07
1.09004e-06
-5.26052e-07
1.268e-06
-6.84824e-07
1.41838e-06
-8.54365e-07
1.54037e-06
-1.03141e-06
1.63369e-06
-1.21287e-06
1.69851e-06
-1.39588e-06
1.73541e-06
-1.57778e-06
1.74531e-06
-1.75611e-06
1.72936e-06
-1.92865e-06
1.68898e-06
-2.09336e-06
1.62569e-06
-2.24845e-06
1.54118e-06
-2.39227e-06
1.4372e-06
-2.52341e-06
1.31556e-06
-2.64059e-06
1.17812e-06
-2.74271e-06
1.02674e-06
-2.82884e-06
8.63317e-07
-2.89818e-06
6.89767e-07
-2.95006e-06
5.08013e-07
-2.98395e-06
3.20006e-07
-2.99948e-06
1.2773e-07
-2.99639e-06
-6.67892e-08
-2.97455e-06
-2.61477e-07
-2.93401e-06
-4.54199e-07
-2.87494e-06
-6.42762e-07
-2.79772e-06
-8.24903e-07
-2.70287e-06
-9.98303e-07
-2.59116e-06
-1.16059e-06
-2.46353e-06
-1.30935e-06
-2.32118e-06
-1.44216e-06
-2.16557e-06
-1.55662e-06
-1.99841e-06
-1.65038e-06
-1.8217e-06
-1.72121e-06
-1.6377e-06
-1.76704e-06
-1.44895e-06
-1.78601e-06
-1.2583e-06
-1.7766e-06
-1.06879e-06
-1.73763e-06
-8.83738e-07
-1.66838e-06
-7.0663e-07
-1.56865e-06
-5.41106e-07
-1.43884e-06
-3.90903e-07
-1.27998e-06
-2.59799e-07
-1.09379e-06
-1.51554e-07
-8.82729e-07
-6.98482e-08
-6.49963e-07
-1.82201e-08
-3.99335e-07
-1.35546e-07
-1.95227e-08
1.59876e-07
-7.40872e-08
4.62501e-07
-1.59578e-07
7.43135e-07
-2.71851e-07
9.98184e-07
-4.068e-07
1.22499e-06
-5.60409e-07
1.42161e-06
-7.28794e-07
1.58677e-06
-9.08248e-07
1.71983e-06
-1.09526e-06
1.8207e-06
-1.28656e-06
1.88981e-06
-1.4791e-06
1.92795e-06
-1.6701e-06
1.9363e-06
-1.857e-06
1.91627e-06
-2.03752e-06
1.86949e-06
-2.20959e-06
1.79776e-06
-2.37138e-06
1.70297e-06
-2.52127e-06
1.58709e-06
-2.65784e-06
1.45213e-06
-2.77984e-06
1.30012e-06
-2.8862e-06
1.13309e-06
-2.97599e-06
9.5311e-07
-3.04844e-06
7.62214e-07
-3.10289e-06
5.62465e-07
-3.13883e-06
3.55942e-07
-3.15585e-06
1.44752e-07
-3.15368e-06
-6.89565e-08
-3.13218e-06
-2.82979e-07
-3.09133e-06
-4.95047e-07
-3.03128e-06
-7.02816e-07
-2.95232e-06
-9.03865e-07
-2.85493e-06
-1.09569e-06
-2.7398e-06
-1.27572e-06
-2.60783e-06
-1.44132e-06
-2.46017e-06
-1.58982e-06
-2.29824e-06
-1.71855e-06
-2.12374e-06
-1.82488e-06
-1.93869e-06
-1.90626e-06
-1.74541e-06
-1.96032e-06
-1.54653e-06
-1.98489e-06
-1.34501e-06
-1.97811e-06
-1.14413e-06
-1.93852e-06
-9.4739e-07
-1.86511e-06
-7.58581e-07
-1.75746e-06
-5.81661e-07
-1.61576e-06
-4.20727e-07
-1.44091e-06
-2.79946e-07
-1.23457e-06
-1.63481e-07
-9.99194e-07
-7.54182e-08
-7.38025e-07
-1.96923e-08
-4.5506e-07
-1.55239e-07
-2.08453e-08
1.80721e-07
-7.90338e-08
5.2069e-07
-1.70084e-07
8.34185e-07
-2.89478e-07
1.11758e-06
-4.32745e-07
1.36826e-06
-5.95518e-07
1.58438e-06
-7.73595e-07
1.76485e-06
-9.6298e-07
1.90921e-06
-1.15992e-06
2.01764e-06
-1.36093e-06
2.09082e-06
-1.56281e-06
2.12983e-06
-1.76264e-06
2.13613e-06
-1.95779e-06
2.11142e-06
-2.14592e-06
2.05762e-06
-2.32495e-06
1.97679e-06
-2.49303e-06
1.87106e-06
-2.64857e-06
1.74263e-06
-2.79017e-06
1.59373e-06
-2.91663e-06
1.42657e-06
-3.02689e-06
1.24336e-06
-3.12008e-06
1.0463e-06
-3.19545e-06
8.37584e-07
-3.25237e-06
6.19384e-07
-3.29033e-06
3.93897e-07
-3.30892e-06
1.63341e-07
-3.30785e-06
-7.00253e-08
-3.28694e-06
-3.03885e-07
-3.24614e-06
-5.35848e-07
-3.18552e-06
-7.63434e-07
-3.10532e-06
-9.84069e-07
-3.00593e-06
-1.19508e-06
-2.88796e-06
-1.39369e-06
-2.75224e-06
-1.57704e-06
-2.59984e-06
-1.74222e-06
-2.43213e-06
-1.88626e-06
-2.25078e-06
-2.00623e-06
-2.05779e-06
-2.09925e-06
-1.85553e-06
-2.16258e-06
-1.64672e-06
-2.19371e-06
-1.43443e-06
-2.1904e-06
-1.22212e-06
-2.15083e-06
-1.01355e-06
-2.07369e-06
-8.1278e-07
-1.95823e-06
-6.24123e-07
-1.80442e-06
-4.52061e-07
-1.61297e-06
-3.01183e-07
-1.38545e-06
-1.76094e-07
-1.12428e-06
-8.13287e-08
-8.32791e-07
-2.12611e-08
-5.15128e-07
-1.765e-07
-2.22213e-08
2.02942e-07
-8.41628e-08
5.82631e-07
-1.80945e-07
9.30967e-07
-3.07645e-07
1.24428e-06
-4.59398e-07
1.52001e-06
-6.31462e-07
1.75645e-06
-8.19295e-07
1.95268e-06
-1.0186e-06
2.10851e-06
-1.22536e-06
2.22441e-06
-1.43589e-06
2.30135e-06
-1.64682e-06
2.34076e-06
-1.85512e-06
2.34443e-06
-2.0581e-06
2.31439e-06
-2.25335e-06
2.25288e-06
-2.4388e-06
2.16224e-06
-2.61263e-06
2.04489e-06
-2.77327e-06
1.90327e-06
-2.91937e-06
1.73983e-06
-3.04979e-06
1.55698e-06
-3.16353e-06
1.3571e-06
-3.25977e-06
1.14254e-06
-3.33779e-06
9.15607e-07
-3.397e-06
6.786e-07
-3.43692e-06
4.33811e-07
-3.45713e-06
1.83552e-07
-3.45733e-06
-6.98267e-08
-3.4373e-06
-3.23912e-07
-3.39694e-06
-5.7621e-07
-3.33625e-06
-8.24124e-07
-3.25538e-06
-1.06494e-06
-3.15464e-06
-1.29582e-06
-3.03452e-06
-1.5138e-06
-2.89576e-06
-1.7158e-06
-2.73934e-06
-1.89864e-06
-2.56654e-06
-2.05906e-06
-2.37897e-06
-2.1938e-06
-2.17861e-06
-2.29961e-06
-1.96782e-06
-2.37337e-06
-1.7494e-06
-2.41213e-06
-1.52653e-06
-2.41326e-06
-1.30284e-06
-2.37452e-06
-1.08234e-06
-2.29419e-06
-8.69385e-07
-2.17118e-06
-6.68658e-07
-2.00514e-06
-4.85058e-07
-1.79657e-06
-3.23633e-07
-1.54687e-06
-1.89477e-07
-1.25844e-06
-8.76238e-08
-9.34644e-07
-2.29396e-08
-5.79812e-07
-1.99439e-07
-2.36584e-08
2.26601e-07
-8.94999e-08
6.48473e-07
-1.92208e-07
1.03367e-06
-3.26419e-07
1.37849e-06
-4.86836e-07
1.68043e-06
-6.68314e-07
1.93793e-06
-8.65942e-07
2.15031e-06
-1.0751e-06
2.31768e-06
-1.29152e-06
2.44083e-06
-1.51129e-06
2.52112e-06
-1.73089e-06
2.56036e-06
-1.94717e-06
2.56072e-06
-2.15739e-06
2.52461e-06
-2.35913e-06
2.45462e-06
-2.55032e-06
2.35343e-06
-2.72918e-06
2.22375e-06
-2.89421e-06
2.0683e-06
-3.04414e-06
1.88976e-06
-3.17788e-06
1.69072e-06
-3.29454e-06
1.47376e-06
-3.39335e-06
1.24135e-06
-3.47366e-06
9.95918e-07
-3.53492e-06
7.39866e-07
-3.57668e-06
4.75566e-07
-3.59853e-06
2.05405e-07
-3.60016e-06
-6.81991e-08
-3.58131e-06
-3.42759e-07
-3.54182e-06
-6.15699e-07
-3.48162e-06
-8.84325e-07
-3.40076e-06
-1.1458e-06
-3.29942e-06
-1.39715e-06
-3.178e-06
-1.63522e-06
-3.03708e-06
-1.85672e-06
-2.87753e-06
-2.05819e-06
-2.70051e-06
-2.23608e-06
-2.50754e-06
-2.38677e-06
-2.30054e-06
-2.50661e-06
-2.08186e-06
-2.59205e-06
-1.85431e-06
-2.63968e-06
-1.62119e-06
-2.64638e-06
-1.38628e-06
-2.60943e-06
-1.15383e-06
-2.52664e-06
-9.28516e-07
-2.39649e-06
-7.15408e-07
-2.21825e-06
-5.19856e-07
-1.99212e-06
-3.47413e-07
-1.71932e-06
-2.03712e-07
-1.40214e-06
-9.43473e-08
-1.04401e-06
-2.4741e-08
-6.49418e-07
-2.2418e-07
-2.5165e-08
2.51766e-07
-9.50731e-08
7.18381e-07
-2.03926e-07
1.14253e-06
-3.45871e-07
1.52044e-06
-5.15138e-07
1.84969e-06
-7.06142e-07
2.12893e-06
-9.13574e-07
2.35774e-06
-1.13248e-06
2.53658e-06
-1.3583e-06
2.66665e-06
-1.58692e-06
2.74973e-06
-1.81465e-06
2.7881e-06
-2.03828e-06
2.78434e-06
-2.25499e-06
2.74132e-06
-2.4624e-06
2.66202e-06
-2.65845e-06
2.54948e-06
-2.84146e-06
2.40676e-06
-3.00999e-06
2.23684e-06
-3.16288e-06
2.04264e-06
-3.29915e-06
1.827e-06
-3.41801e-06
1.59262e-06
-3.51878e-06
1.34212e-06
-3.6009e-06
1.07804e-06
-3.66388e-06
8.02844e-07
-3.70729e-06
5.1898e-07
-3.73077e-06
2.28879e-07
-3.73397e-06
-6.49949e-08
-3.71662e-06
-3.6011e-07
-3.67848e-06
-6.53835e-07
-3.61941e-06
-9.43404e-07
-3.53932e-06
-1.22589e-06
-3.43829e-06
-1.49818e-06
-3.31655e-06
-1.75697e-06
-3.17453e-06
-1.99874e-06
-3.01293e-06
-2.21979e-06
-2.83278e-06
-2.41624e-06
-2.63545e-06
-2.5841e-06
-2.42277e-06
-2.7193e-06
-2.19702e-06
-2.8178e-06
-1.96102e-06
-2.87568e-06
-1.71814e-06
-2.88926e-06
-1.47231e-06
-2.85527e-06
-1.22801e-06
-2.77094e-06
-9.90248e-07
-2.63425e-06
-7.64492e-07
-2.44401e-06
-5.56585e-07
-2.20003e-06
-3.72635e-07
-1.90327e-06
-2.18881e-07
-1.55589e-06
-1.01544e-07
-1.16135e-06
-2.66791e-08
-7.24283e-07
-2.5086e-07
-2.67507e-08
2.78517e-07
-1.00915e-07
7.92545e-07
-2.16156e-07
1.25777e-06
-3.6608e-07
1.67036e-06
-5.4439e-07
2.028e-06
-7.45015e-07
2.32956e-06
-9.62217e-07
2.57494e-06
-1.19067e-06
2.76504e-06
-1.42554e-06
2.90151e-06
-1.66248e-06
2.98667e-06
-1.89767e-06
3.02329e-06
-2.12781e-06
3.01448e-06
-2.35008e-06
2.96359e-06
-2.56211e-06
2.87405e-06
-2.76194e-06
2.74932e-06
-2.94797e-06
2.59279e-06
-3.1189e-06
2.40777e-06
-3.2737e-06
2.19744e-06
-3.41151e-06
1.96482e-06
-3.53168e-06
1.71279e-06
-3.63366e-06
1.44409e-06
-3.71697e-06
1.16135e-06
-3.78121e-06
8.67088e-07
-3.82602e-06
5.63788e-07
-3.85104e-06
2.53902e-07
-3.85595e-06
-6.00882e-08
-3.84042e-06
-3.75639e-07
-3.80416e-06
-6.90095e-07
-3.74692e-06
-1.00065e-06
-3.66849e-06
-1.30431e-06
-3.5688e-06
-1.59787e-06
-3.4479e-06
-1.87787e-06
-3.30603e-06
-2.1406e-06
-3.1437e-06
-2.38211e-06
-2.96173e-06
-2.59821e-06
-2.76134e-06
-2.78449e-06
-2.54418e-06
-2.93646e-06
-2.31245e-06
-3.04953e-06
-2.06892e-06
-3.1192e-06
-1.817e-06
-3.14119e-06
-1.56073e-06
-3.11153e-06
-1.30482e-06
-3.02685e-06
-1.05461e-06
-2.88446e-06
-8.16002e-07
-2.68262e-06
-5.95362e-07
-2.42067e-06
-3.99413e-07
-2.09921e-06
-2.35068e-07
-1.72024e-06
-1.09262e-07
-1.28715e-06
-2.87688e-08
-8.04777e-07
-2.79628e-07
-2.84276e-08
3.06944e-07
-1.07064e-07
8.71181e-07
-2.2897e-07
1.37967e-06
-3.87141e-07
1.82853e-06
-5.74692e-07
2.21556e-06
-7.85013e-07
2.53988e-06
-1.01189e-06
2.80182e-06
-1.24962e-06
3.00276e-06
-1.49305e-06
3.14494e-06
-1.73762e-06
3.23124e-06
-1.97938e-06
3.26506e-06
-2.21499e-06
3.25009e-06
-2.44164e-06
3.19024e-06
-2.65702e-06
3.08943e-06
-2.85928e-06
2.95158e-06
-3.04697e-06
2.78048e-06
-3.21896e-06
2.57975e-06
-3.37436e-06
2.35284e-06
-3.51251e-06
2.10297e-06
-3.63291e-06
1.83319e-06
-3.73515e-06
1.54633e-06
-3.81889e-06
1.24509e-06