/*--------------------------------*- C++ -*----------------------------------*\
  =========                 |
  \\      /  F ield         | OpenFOAM: The Open Source CFD Toolbox
   \\    /   O peration     | Website:  https://openfoam.org
    \\  /    A nd           | Version:  7
     \\/     M anipulation  |
\*---------------------------------------------------------------------------*/
FoamFile
{
    version     2.0;
    format      ascii;
    class       volVectorField;
    location    "0.064";
    object      U;
}
// * * * * * * * * * * * * * * * * * * * * * * * * * * * * * * * * * * * * * //

dimensions      [0 1 -1 0 0 0 0];

internalField   nonuniform List<vector> 
2500
(
(3.02447e-05 -3.03489e-05 0)
(9.20672e-05 -3.72481e-05 0)
(0.000127445 -1.91629e-05 0)
(9.61612e-05 7.35842e-06 0)
(-1.41151e-05 3.4586e-05 0)
(-0.000201785 5.96597e-05 0)
(-0.000459776 8.14063e-05 0)
(-0.000778821 9.94756e-05 0)
(-0.0011486 0.00011388 0)
(-0.00155849 0.000124769 0)
(-0.001998 0.000132342 0)
(-0.00245698 0.000136818 0)
(-0.00292579 0.000138419 0)
(-0.00339534 0.000137369 0)
(-0.00385714 0.000133884 0)
(-0.00430335 0.000128179 0)
(-0.00472679 0.000120462 0)
(-0.00512091 0.000110935 0)
(-0.00547984 9.97952e-05 0)
(-0.00579837 8.72387e-05 0)
(-0.00607194 7.34589e-05 0)
(-0.00629669 5.86486e-05 0)
(-0.00646941 4.30025e-05 0)
(-0.00658758 2.67187e-05 0)
(-0.00664939 1.00002e-05 0)
(-0.00665376 -6.94348e-06 0)
(-0.00660035 -2.38958e-05 0)
(-0.00648956 -4.0632e-05 0)
(-0.00632263 -5.6919e-05 0)
(-0.00610157 -7.25152e-05 0)
(-0.00582924 -8.71716e-05 0)
(-0.00550935 -0.000100633 0)
(-0.00514647 -0.00011264 0)
(-0.00474602 -0.000122933 0)
(-0.00431428 -0.00013125 0)
(-0.00385835 -0.000137338 0)
(-0.00338611 -0.000140948 0)
(-0.0029062 -0.000141844 0)
(-0.00242791 -0.000139806 0)
(-0.00196114 -0.000134631 0)
(-0.0015162 -0.00012614 0)
(-0.00110378 -0.000114186 0)
(-0.000734628 -9.86625e-05 0)
(-0.000419349 -7.95393e-05 0)
(-0.00016787 -5.69498e-05 0)
(1.12875e-05 -3.14239e-05 0)
(0.000112322 -4.29184e-06 0)
(0.00013489 2.13829e-05 0)
(9.33189e-05 3.82282e-05 0)
(2.98327e-05 2.97714e-05 0)
(3.75351e-05 -9.24043e-05 0)
(8.51189e-05 -8.43062e-05 0)
(3.66487e-05 1.70278e-05 0)
(-0.000169078 0.00015521 0)
(-0.000556378 0.00030149 0)
(-0.00112585 0.000441102 0)
(-0.00186568 0.000566318 0)
(-0.00275671 0.000673406 0)
(-0.00377566 0.000760807 0)
(-0.0048972 0.000828142 0)
(-0.0060953 0.000875702 0)
(-0.00734414 0.000904178 0)
(-0.00861859 0.000914505 0)
(-0.00989465 0.000907766 0)
(-0.0111497 0.000885133 0)
(-0.0123625 0.000847836 0)
(-0.0135135 0.000797132 0)
(-0.014585 0.000734297 0)
(-0.0155609 0.000660617 0)
(-0.0164269 0.000577388 0)
(-0.0171704 0.000485914 0)
(-0.0177809 0.000387516 0)
(-0.0182496 0.000283532 0)
(-0.0185696 0.000175331 0)
(-0.018736 6.43106e-05 0)
(-0.0187461 -4.809e-05 0)
(-0.0185989 -0.000160391 0)
(-0.0182958 -0.000271068 0)
(-0.0178403 -0.000378552 0)
(-0.017238 -0.000481235 0)
(-0.016497 -0.000577479 0)
(-0.0156274 -0.00066562 0)
(-0.0146419 -0.000743991 0)
(-0.0135552 -0.000810938 0)
(-0.0123843 -0.000864841 0)
(-0.0111485 -0.00090414 0)
(-0.00986884 -0.000927371 0)
(-0.00856838 -0.000933192 0)
(-0.00727168 -0.000920432 0)
(-0.00600456 -0.000888133 0)
(-0.0047937 -0.000835621 0)
(-0.0036661 -0.000762593 0)
(-0.00264839 -0.00066927 0)
(-0.00176578 -0.00055665 0)
(-0.00104067 -0.000426991 0)
(-0.000490527 -0.000284771 0)
(-0.000124571 -0.000138367 0)
(6.08839e-05 -3.15979e-06 0)
(9.35394e-05 9.24885e-05 0)
(3.85771e-05 9.33195e-05 0)
(2.04624e-05 -0.000129356 0)
(-1.27924e-05 -3.68899e-05 0)
(-0.000227947 0.000233528 0)
(-0.000676939 0.000581867 0)
(-0.00138345 0.000951928 0)
(-0.0023484 0.00130966 0)
(-0.00355657 0.00163498 0)
(-0.00498228 0.00191665 0)
(-0.00659333 0.00214883 0)
(-0.00835384 0.00232905 0)
(-0.0102262 0.00245695 0)
(-0.0121723 0.00253354 0)
(-0.0141547 0.00256074 0)
(-0.0161374 0.00254107 0)
(-0.018086 0.00247742 0)
(-0.0199681 0.00237296 0)
(-0.0217538 0.00223105 0)
(-0.0234157 0.00205514 0)
(-0.0249289 0.00184877 0)
(-0.0262712 0.00161556 0)
(-0.0274234 0.00135917 0)
(-0.0283689 0.00108333 0)
(-0.0290943 0.000791847 0)
(-0.029589 0.000488592 0)
(-0.0298455 0.000177545 0)
(-0.0298595 -0.000137216 0)
(-0.0296297 -0.000451504 0)
(-0.0291585 -0.00076102 0)
(-0.0284512 -0.00106136 0)
(-0.0275169 -0.00134802 0)
(-0.0263679 -0.00161645 0)
(-0.0250203 -0.00186205 0)
(-0.0234933 -0.00208022 0)
(-0.0218099 -0.00226645 0)
(-0.0199962 -0.00241637 0)
(-0.0180816 -0.00252579 0)
(-0.0160983 -0.00259086 0)
(-0.0140812 -0.00260814 0)
(-0.0120673 -0.00257475 0)
(-0.0100952 -0.0024885 0)
(-0.00820468 -0.00234815 0)
(-0.00643524 -0.00215367 0)
(-0.00482541 -0.0019067 0)
(-0.00341097 -0.00161124 0)
(-0.00222294 -0.00127476 0)
(-0.00128475 -0.000910191 0)
(-0.000608331 -0.000539074 0)
(-0.000188799 -0.000196541 0)
(2.16345e-06 6.11914e-05 0)
(2.2872e-05 0.000136458 0)
(-4.52405e-06 -0.000102177 0)
(-0.000147299 0.000164902 0)
(-0.000572435 0.000681311 0)
(-0.00130516 0.0013123 0)
(-0.00235933 0.00197568 0)
(-0.00373211 0.00261773 0)
(-0.00540363 0.00320433 0)
(-0.00734223 0.00371478 0)
(-0.0095086 0.00413734 0)
(-0.0118586 0.00446618 0)
(-0.0143455 0.00469949 0)
(-0.0169216 0.00483819 0)
(-0.0195396 0.00488511 0)
(-0.0221536 0.00484435 0)
(-0.0247195 0.00472095 0)
(-0.0271957 0.00452056 0)
(-0.0295435 0.00424927 0)
(-0.0317273 0.0039135 0)
(-0.0337148 0.00351987 0)
(-0.0354772 0.0030752 0)
(-0.0369894 0.00258644 0)
(-0.0382299 0.00206072 0)
(-0.0391811 0.00150528 0)
(-0.0398293 0.000927567 0)
(-0.0401647 0.000335177 0)
(-0.0401818 -0.00026409 0)
(-0.0398791 -0.000862236 0)
(-0.0392597 -0.00145107 0)
(-0.0383308 -0.00202222 0)
(-0.0371042 -0.00256717 0)
(-0.0355962 -0.00307729 0)
(-0.0338275 -0.00354394 0)
(-0.0318234 -0.00395852 0)
(-0.0296135 -0.0043126 0)
(-0.0272318 -0.00459808 0)
(-0.0247159 -0.00480729 0)
(-0.0221076 -0.00493322 0)
(-0.0194513 -0.00496976 0)
(-0.0167944 -0.00491192 0)
(-0.014186 -0.00475616 0)
(-0.011676 -0.00450086 0)
(-0.00931407 -0.00414682 0)
(-0.00714809 -0.00369809 0)
(-0.00522215 -0.00316312 0)
(-0.00357434 -0.00255652 0)
(-0.00223375 -0.00190182 0)
(-0.00121648 -0.00123565 0)
(-0.000520749 -0.000613496 0)
(-0.000126812 -0.000117924 0)
(-9.27747e-07 0.000118778 0)
(-3.06002e-05 2.08167e-06 0)
(-0.000293003 0.00054822 0)
(-0.000948488 0.00138988 0)
(-0.00198638 0.00236891 0)
(-0.00340478 0.00338233 0)
(-0.00519344 0.00435907 0)
(-0.00732579 0.0052515 0)
(-0.0097636 0.00602913 0)
(-0.0124608 0.00667359 0)
(-0.0153662 0.00717497 0)
(-0.0184253 0.00752943 0)
(-0.0215826 0.00773744 0)
(-0.0247827 0.00780257 0)
(-0.0279714 0.00773059 0)
(-0.0310966 0.00752886 0)
(-0.0341091 0.0072059 0)
(-0.0369628 0.00677102 0)
(-0.0396152 0.00623415 0)
(-0.0420278 0.00560566 0)
(-0.0441662 0.00489627 0)
(-0.0460003 0.00411699 0)
(-0.0475042 0.00327911 0)
(-0.048657 0.00239418 0)
(-0.0494423 0.00147403 0)
(-0.0498484 0.000530762 0)
(-0.0498688 -0.000423204 0)
(-0.0495017 -0.00137516 0)
(-0.0487509 -0.00231209 0)
(-0.0476251 -0.00322074 0)
(-0.0461384 -0.00408764 0)
(-0.0443104 -0.00489919 0)
(-0.042166 -0.0056418 0)
(-0.0397353 -0.006302 0)
(-0.0370536 -0.00686663 0)
(-0.0341614 -0.00732309 0)
(-0.0311035 -0.00765958 0)
(-0.0279292 -0.00786539 0)
(-0.0246912 -0.00793131 0)
(-0.0214454 -0.00785 0)
(-0.0182495 -0.00761657 0)
(-0.0151619 -0.0072292 0)
(-0.0122408 -0.00668997 0)
(-0.00954188 -0.00600605 0)
(-0.00711661 -0.0051912 0)
(-0.00500985 -0.00426803 0)
(-0.00325714 -0.00327122 0)
(-0.00188094 -0.00225216 0)
(-0.000886294 -0.00128473 0)
(-0.000267948 -0.000473037 0)
(-2.60626e-05 2.65628e-05 0)
(-5.53937e-05 0.00018401 0)
(-0.000438204 0.00112086 0)
(-0.00133021 0.00237205 0)
(-0.00268174 0.00376547 0)
(-0.00447184 0.00518291 0)
(-0.00668001 0.00653918 0)
(-0.00927103 0.00777481 0)
(-0.012199 0.00885017 0)
(-0.0154107 0.00974027 0)
(-0.0188482 0.010431 0)
(-0.02245 0.0109162 0)
(-0.0261539 0.0111958 0)
(-0.0298972 0.0112741 0)
(-0.033619 0.0111584 0)
(-0.0372605 0.0108588 0)
(-0.0407658 0.0103868 0)
(-0.0440828 0.00975543 0)
(-0.0471632 0.00897858 0)
(-0.0499632 0.00807091 0)
(-0.0524436 0.00704764 0)
(-0.0545701 0.00592447 0)
(-0.0563135 0.00471755 0)
(-0.0576497 0.0034434 0)
(-0.0585599 0.00211899 0)
(-0.0590311 0.000761684 0)
(-0.0590556 -0.000610734 0)
(-0.0586316 -0.00198005 0)
(-0.0577633 -0.00332767 0)
(-0.0564606 -0.00463465 0)
(-0.0547398 -0.00588177 0)
(-0.0526229 -0.00704969 0)
(-0.0501382 -0.0081191 0)
(-0.0473201 -0.00907091 0)
(-0.0442086 -0.00988655 0)
(-0.0408495 -0.0105483 0)
(-0.0372937 -0.0110396 0)
(-0.0335968 -0.0113457 0)
(-0.0298187 -0.0114537 0)
(-0.0260222 -0.011354 0)
(-0.0222725 -0.01104 0)
(-0.0186356 -0.0105099 0)
(-0.015177 -0.00976723 0)
(-0.0119596 -0.00882262 0)
(-0.00904212 -0.00769543 0)
(-0.00647668 -0.00641634 0)
(-0.00430647 -0.0050308 0)
(-0.00256237 -0.00360356 0)
(-0.00125906 -0.00222399 0)
(-0.0004092 -0.00101265 0)
(-5.00397e-05 -0.000141028 0)
(-7.82363e-05 0.000440535 0)
(-0.000578065 0.00188195 0)
(-0.00170501 0.00363008 0)
(-0.00337074 0.0055058 0)
(-0.00553382 0.00738056 0)
(-0.00816172 0.00915847 0)
(-0.0112089 0.0107704 0)
(-0.0146206 0.0121688 0)
(-0.0183359 0.0133227 0)
(-0.0222898 0.0142142 0)
(-0.0264143 0.014835 0)
(-0.0306405 0.0151844 0)
(-0.0348996 0.0152675 0)
(-0.0391247 0.0150936 0)
(-0.0432511 0.0146754 0)
(-0.0472173 0.0140279 0)
(-0.050966 0.0131681 0)
(-0.0544441 0.0121143 0)
(-0.0576032 0.0108859 0)
(-0.0604003 0.00950304 0)
(-0.0627974 0.00798674 0)
(-0.0647622 0.00635853 0)
(-0.0662684 0.00464053 0)
(-0.0672951 0.00285542 0)
(-0.0678278 0.00102645 0)
(-0.0678581 -0.000822574 0)
(-0.067384 -0.00266731 0)
(-0.0664099 -0.00448291 0)
(-0.0649469 -0.00624407 0)
(-0.0630125 -0.0079252 0)
(-0.0606311 -0.00950051 0)
(-0.0578338 -0.0109443 0)
(-0.0546583 -0.0122314 0)
(-0.0511486 -0.013337 0)
(-0.0473549 -0.0142378 0)
(-0.0433334 -0.014912 0)
(-0.0391451 -0.0153401 0)
(-0.0348558 -0.0155057 0)
(-0.0305348 -0.015396 0)
(-0.0262537 -0.0150031 0)
(-0.0220854 -0.0143247 0)
(-0.0181024 -0.013366 0)
(-0.014375 -0.0121408 0)
(-0.0109692 -0.010674 0)
(-0.0079453 -0.00900382 0)
(-0.00535529 -0.00718541 0)
(-0.00324023 -0.00529507 0)
(-0.00162632 -0.00343465 0)
(-0.000545613 -0.00173668 0)
(-7.21491e-05 -0.000381257 0)
(-9.91896e-05 0.000767714 0)
(-0.0007113 0.00282672 0)
(-0.00206809 0.00516078 0)
(-0.00404442 0.0075882 0)
(-0.00657825 0.00997402 0)
(-0.00962393 0.0122148 0)
(-0.0131245 0.0142339 0)
(-0.0170152 0.0159775 0)
(-0.0212269 0.0174099 0)
(-0.0256869 0.0185098 0)
(-0.0303207 0.0192673 0)
(-0.0350529 0.0196816 0)
(-0.0398091 0.0197588 0)
(-0.0445166 0.0195102 0)
(-0.0491056 0.0189517 0)
(-0.0535098 0.0181021 0)
(-0.0576674 0.0169825 0)
(-0.0615211 0.0156161 0)
(-0.0650187 0.0140274 0)
(-0.0681138 0.012242 0)
(-0.0707656 0.0102867 0)
(-0.0729392 0.00818872 0)
(-0.0746059 0.00597637 0)
(-0.0757435 0.00367851 0)
(-0.0763361 0.00132479 0)
(-0.0763746 -0.00105446 0)
(-0.0758567 -0.00342823 0)
(-0.0747869 -0.00576487 0)
(-0.0731769 -0.0080322 0)
(-0.0710456 -0.0101977 0)
(-0.0684191 -0.0122285 0)
(-0.0653306 -0.0140921 0)
(-0.0618204 -0.0157564 0)
(-0.0579361 -0.0171902 0)
(-0.0537316 -0.0183638 0)
(-0.0492672 -0.0192498 0)
(-0.0446091 -0.0198236 0)
(-0.0398281 -0.0200645 0)
(-0.0349993 -0.0199566 0)
(-0.0302006 -0.0194898 0)
(-0.0255114 -0.0186616 0)
(-0.0210112 -0.0174781 0)
(-0.0167777 -0.0159561 0)
(-0.0128851 -0.0141253 0)
(-0.00940249 -0.0120307 0)
(-0.00639199 -0.00973593 0)
(-0.00390603 -0.00732671 0)
(-0.00198344 -0.00491474 0)
(-0.000675876 -0.00264109 0)
(-9.24119e-05 -0.000690364 0)
(-0.000118581 0.00116171 0)
(-0.000838308 0.0039492 0)
(-0.00241889 0.00695869 0)
(-0.00470067 0.0100085 0)
(-0.00760147 0.0129602 0)
(-0.0110621 0.0157052 0)
(-0.0150133 0.0181618 0)
(-0.0193798 0.0202714 0)
(-0.0240832 0.0219948 0)
(-0.029043 0.0233084 0)
(-0.0341775 0.0242014 0)
(-0.0394052 0.0246732 0)
(-0.0446459 0.0247316 0)
(-0.0498217 0.0243905 0)
(-0.0548581 0.023669 0)
(-0.0596844 0.0225901 0)
(-0.0642348 0.0211797 0)
(-0.0684483 0.0194659 0)
(-0.0722699 0.0174789 0)
(-0.0756499 0.0152502 0)
(-0.0785452 0.0128123 0)
(-0.0809187 0.010199 0)
(-0.08274 0.007445 0)
(-0.0839854 0.00458573 0)
(-0.0846378 0.00165764 0)
(-0.0846875 -0.00130199 0)
(-0.0841317 -0.00425506 0)
(-0.082975 -0.0071627 0)
(-0.0812296 -0.00998539 0)
(-0.0789151 -0.0126831 0)
(-0.0760587 -0.0152158 0)
(-0.0726956 -0.0175432 0)
(-0.0688683 -0.0196261 0)
(-0.0646268 -0.0214262 0)
(-0.0600284 -0.022907 0)
(-0.0551372 -0.0240349 0)
(-0.0500235 -0.0247797 0)
(-0.0447631 -0.0251159 0)
(-0.0394366 -0.025024 0)
(-0.0341276 -0.0244914 0)
(-0.0289223 -0.0235145 0)
(-0.0239074 -0.0221001 0)
(-0.0191684 -0.0202671 0)
(-0.0147883 -0.0180494 0)
(-0.0108459 -0.0154975 0)
(-0.00741438 -0.012682 0)
(-0.0045585 -0.00969652 0)
(-0.00233026 -0.00666037 0)
(-0.000800511 -0.00372078 0)
(-0.000111163 -0.00106477 0)
(-0.000136791 0.00161929 0)
(-0.000960208 0.00524371 0)
(-0.00275901 0.00901809 0)
(-0.00534117 0.0127621 0)
(-0.00860509 0.0163356 0)
(-0.0124779 0.0196272 0)
(-0.0168777 0.0225516 0)
(-0.0217179 0.0250475 0)
(-0.0269104 0.0270734 0)
(-0.0323664 0.0286044 0)
(-0.0379968 0.0296298 0)
(-0.0437135 0.0301503 0)
(-0.0494309 0.0301755 0)
(-0.0550658 0.0297227 0)
(-0.0605393 0.0288147 0)
(-0.0657769 0.027479 0)
(-0.070709 0.0257467 0)
(-0.0752717 0.0236514 0)
(-0.0794069 0.0212292 0)
(-0.0830629 0.0185176 0)
(-0.0861942 0.0155557 0)
(-0.0887621 0.0123837 0)
(-0.0907344 0.00904312 0)
(-0.0920863 0.00557638 0)
(-0.0927997 0.00202698 0)
(-0.0928642 -0.00156054 0)
(-0.0922765 -0.00514067 0)
(-0.0910411 -0.00866696 0)
(-0.0891702 -0.0120922 0)
(-0.086684 -0.0153686 0)
(-0.0836105 -0.0184481 0)
(-0.0799861 -0.0212828 0)
(-0.075855 -0.0238255 0)
(-0.0712694 -0.0260303 0)
(-0.0662893 -0.0278537 0)
(-0.0609822 -0.029255 0)
(-0.0554221 -0.030198 0)
(-0.0496895 -0.0306518 0)
(-0.04387 -0.0305925 0)
(-0.0380535 -0.0300044 0)
(-0.0323327 -0.0288822 0)
(-0.0268018 -0.0272323 0)
(-0.021555 -0.0250754 0)
(-0.0166845 -0.0224479 0)
(-0.0122798 -0.0194052 0)
(-0.00842597 -0.0160235 0)
(-0.00520054 -0.0124025 0)
(-0.00266902 -0.00866777 0)
(-0.000920859 -0.0049712 0)
(-0.000128816 -0.00150156 0)
(-0.00015418 0.00213799 0)
(-0.00107837 0.00670562 0)
(-0.00309106 0.0113341 0)
(-0.00596958 0.0158448 0)
(-0.00959364 0.0200972 0)
(-0.0138767 0.0239785 0)
(-0.0187239 0.0274018 0)
(-0.024037 0.0303043 0)
(-0.0297178 0.0326435 0)
(-0.0356685 0.0343949 0)
(-0.0417923 0.0355487 0)
(-0.0479947 0.0361076 0)
(-0.054184 0.0360841 0)
(-0.0602723 0.0354992 0)
(-0.0661764 0.0343804 0)
(-0.071818 0.03276 0)
(-0.0771243 0.0306747 0)
(-0.0820287 0.0281641 0)
(-0.0864707 0.0252704 0)
(-0.0903966 0.0220376 0)
(-0.093759 0.0185116 0)
(-0.0965178 0.0147394 0)
(-0.0986396 0.0107694 0)
(-0.100098 0.00665118 0)
(-0.100875 0.00243568 0)
(-0.100959 -0.00182515 0)
(-0.100345 -0.00607813 0)
(-0.0990387 -0.010269 0)
(-0.0970516 -0.0143426 0)
(-0.0944039 -0.0182429 0)
(-0.0911242 -0.0219137 0)
(-0.0872496 -0.0252989 0)
(-0.0828256 -0.028343 0)
(-0.0779061 -0.030992 0)
(-0.0725534 -0.0331945 0)
(-0.0668377 -0.0349024 0)
(-0.0608368 -0.0360727 0)
(-0.0546355 -0.0366683 0)
(-0.0483244 -0.0366603 0)
(-0.0419996 -0.036029 0)
(-0.0357606 -0.0347665 0)
(-0.0297098 -0.0328781 0)
(-0.0239502 -0.0303846 0)
(-0.0185844 -0.0273246 0)
(-0.013713 -0.0237567 0)
(-0.00943367 -0.0197615 0)
(-0.00583734 -0.015444 0)
(-0.00300314 -0.0109346 0)
(-0.00103859 -0.00638925 0)
(-0.000145782 -0.00199875 0)
(-0.000171066 0.00271615 0)
(-0.00119419 0.00833171 0)
(-0.00341804 0.0139032 0)
(-0.00659052 0.0192538 0)
(-0.0105731 0.0242431 0)
(-0.0152658 0.0287583 0)
(-0.0205606 0.032712 0)
(-0.0263471 0.0360415 0)
(-0.0325165 0.0387049 0)
(-0.0389619 0.040679 0)
(-0.0455785 0.0419562 0)
(-0.0522649 0.0425422 0)
(-0.0589236 0.0424534 0)
(-0.0654619 0.0417154 0)
(-0.0717921 0.0403605 0)
(-0.0778327 0.0384271 0)
(-0.0835079 0.0359576 0)
(-0.0887487 0.0329981 0)
(-0.0934927 0.0295973 0)
(-0.0976842 0.0258061 0)
(-0.101275 0.0216771 0)
(-0.104223 0.0172644 0)
(-0.106494 0.0126238 0)
(-0.10806 0.00781198 0)
(-0.108904 0.00288737 0)
(-0.109011 -0.00209044 0)
(-0.108378 -0.00706047 0)
(-0.107009 -0.0119605 0)
(-0.104914 -0.0167271 0)
(-0.102115 -0.021296 0)
(-0.0986389 -0.0256024 0)
(-0.0945243 -0.0295815 0)
(-0.089817 -0.0331691 0)
(-0.0845722 -0.0363027 0)
(-0.0788541 -0.0389223 0)
(-0.0727353 -0.0409719 0)
(-0.066297 -0.0424005 0)
(-0.0596281 -0.0431645 0)
(-0.0528245 -0.0432287 0)
(-0.0459881 -0.0425685 0)
(-0.0392261 -0.0411722 0)
(-0.032649 -0.039043 0)
(-0.0263695 -0.0362009 0)
(-0.0205011 -0.0326852 0)
(-0.0151564 -0.0285568 0)
(-0.0104461 -0.0238995 0)
(-0.00647524 -0.0188225 0)
(-0.00333659 -0.0134605 0)
(-0.00115546 -0.00797365 0)
(-0.000162436 -0.00255532 0)
(-0.000187727 0.00335287 0)
(-0.001309 0.0101202 0)
(-0.00374299 0.0167238 0)
(-0.0072088 0.0229879 0)
(-0.0115501 0.028773 0)
(-0.0166533 0.0339668 0)
(-0.022397 0.0384832 0)
(-0.0286585 0.0422603 0)
(-0.0353182 0.0452585 0)
(-0.0422594 0.0474571 0)
(-0.0493692 0.0488519 0)
(-0.0565391 0.0494529 0)
(-0.0636657 0.0492812 0)
(-0.0706514 0.0483679 0)
(-0.0774045 0.0467513 0)
(-0.0838401 0.0444759 0)
(-0.0898801 0.0415909 0)
(-0.0954531 0.0381491 0)
(-0.100495 0.0342061 0)
(-0.104949 0.0298198 0)
(-0.108765 0.0250501 0)
(-0.111901 0.0199583 0)
(-0.114322 0.0146073 0)
(-0.115999 0.00906137 0)
(-0.116912 0.00338631 0)
(-0.117049 -0.00235058 0)
(-0.116403 -0.00808046 0)
(-0.114979 -0.013733 0)
(-0.112786 -0.0192365 0)
(-0.109845 -0.0245181 0)
(-0.106183 -0.0295042 0)
(-0.101838 -0.0341209 0)
(-0.0968572 -0.0382951 0)
(-0.0912955 -0.041955 0)
(-0.0852186 -0.0450315 0)
(-0.0787016 -0.0474596 0)
(-0.0718284 -0.0491801 0)
(-0.0646921 -0.0501412 0)
(-0.0573936 -0.0503006 0)
(-0.0500412 -0.0496277 0)
(-0.0427495 -0.0481059 0)
(-0.0356379 -0.0457348 0)
(-0.0288295 -0.0425325 0)
(-0.0224491 -0.0385379 0)
(-0.0166219 -0.0338127 0)
(-0.0114728 -0.0284432 0)
(-0.00712102 -0.022542 0)
(-0.00367344 -0.0162479 0)
(-0.0012732 -0.00972512 0)
(-0.000179122 -0.00317122 0)
(-0.000204399 0.00404795 0)
(-0.00142401 0.012071 0)
(-0.00406878 0.0197959 0)
(-0.00782919 0.0270478 0)
(-0.0125311 0.0336882 0)
(-0.0180471 0.0396061 0)
(-0.0242425 0.0447174 0)
(-0.0309819 0.0489628 0)
(-0.0381342 0.052306 0)
(-0.0455729 0.0547302 0)
(-0.0531767 0.0562361 0)
(-0.0608298 0.0568389 0)
(-0.068423 0.0565658 0)
(-0.0758536 0.0554543 0)
(-0.0830264 0.0535494 0)
(-0.0898532 0.0509028 0)
(-0.0962535 0.0475707 0)
(-0.102154 0.0436132 0)
(-0.10749 0.0390934 0)
(-0.112203 0.0340764 0)
(-0.116243 0.0286294 0)
(-0.119566 0.022821 0)
(-0.122137 0.0167215 0)
(-0.123926 0.0104025 0)
(-0.124914 0.00393725 0)
(-0.125085 -0.00259923 0)
(-0.124435 -0.00913031 0)
(-0.122964 -0.0155776 0)
(-0.120683 -0.0218609 0)
(-0.117611 -0.0278989 0)
(-0.113775 -0.0336087 0)
(-0.109211 -0.0389075 0)
(-0.103966 -0.0437122 0)
(-0.0980959 -0.0479415 0)
(-0.0916677 -0.0515164 0)
(-0.0847576 -0.0543622 0)
(-0.0774525 -0.0564102 0)
(-0.0698489 -0.0575996 0)
(-0.062053 -0.0578798 0)
(-0.0541794 -0.0572129 0)
(-0.0463505 -0.0555758 0)
(-0.0386951 -0.0529632 0)
(-0.0313469 -0.0493899 0)
(-0.024443 -0.044893 0)
(-0.018122 -0.0395341 0)
(-0.0125234 -0.033401 0)
(-0.00778149 -0.0266092 0)
(-0.00401775 -0.0193013 0)
(-0.00139346 -0.0116464 0)
(-0.000196147 -0.00384728 0)
(-0.000221284 0.00480178 0)
(-0.00154032 0.014185 0)
(-0.00439808 0.0231213 0)
(-0.0084561 0.0314359 0)
(-0.0135222 0.0389916 0)
(-0.0194551 0.0456794 0)
(-0.026106 0.051418 0)
(-0.0333267 0.056152 0)
(-0.0409745 0.0598497 0)
(-0.0489126 0.0624998 0)
(-0.057011 0.064109 0)
(-0.0651466 0.0646993 0)
(-0.0732043 0.0643052 0)
(-0.0810767 0.0629714 0)
(-0.0886648 0.060751 0)
(-0.0958777 0.0577032 0)
(-0.102633 0.0538922 0)
(-0.108856 0.049386 0)
(-0.114481 0.0442553 0)
(-0.119449 0.0385728 0)
(-0.123709 0.0324131 0)
(-0.127218 0.0258522 0)
(-0.129939 0.0189677 0)
(-0.131843 0.0118385 0)
(-0.132909 0.00454528 0)
(-0.133122 -0.00282953 0)
(-0.132474 -0.0102015 0)
(-0.130967 -0.0174844 0)
(-0.128609 -0.0245896 0)
(-0.125418 -0.0314269 0)
(-0.121419 -0.0379045 0)
(-0.116649 -0.0439298 0)
(-0.111152 -0.04941 0)
(-0.104985 -0.0542532 0)
(-0.0982145 -0.05837 0)
(-0.0909182 -0.061675 0)
(-0.0831853 -0.064089 0)
(-0.0751159 -0.0655409 0)
(-0.0668208 -0.0659703 0)
(-0.0584212 -0.0653304 0)
(-0.0500475 -0.0635905 0)
(-0.041838 -0.0607387 0)
(-0.033938 -0.0567849 0)
(-0.0264972 -0.0517631 0)
(-0.0196687 -0.0457334 0)
(-0.0136074 -0.0387844 0)
(-0.00846332 -0.0310338 0)
(-0.00437339 -0.0226282 0)
(-0.00151779 -0.0137422 0)
(-0.00021379 -0.0045852 0)
(-0.000238555 0.0056153 0)
(-0.00165889 0.0164646 0)
(-0.00473328 0.0267035 0)
(-0.00909359 0.0361565 0)
(-0.014529 0.0446879 0)
(-0.020884 0.0521913 0)
(-0.0279955 0.0585892 0)
(-0.0357016 0.0638313 0)
(-0.0438477 0.067892 0)
(-0.0522866 0.0707668 0)
(-0.0608794 0.0724703 0)
(-0.0694957 0.0730323 0)
(-0.0780143 0.072496 0)
(-0.0863234 0.0709148 0)
(-0.0943205 0.0683505 0)
(-0.101912 0.0648711 0)
(-0.109015 0.0605494 0)
(-0.115554 0.0554616 0)
(-0.121461 0.0496865 0)
(-0.126677 0.0433047 0)
(-0.131153 0.0363983 0)
(-0.134845 0.0290508 0)
(-0.137716 0.0213468 0)
(-0.139736 0.0133725 0)
(-0.140884 0.00521561 0)
(-0.141144 -0.00303413 0)
(-0.140508 -0.0112849 0)
(-0.138976 -0.0194424 0)
(-0.136553 -0.02741 0)
(-0.133257 -0.0350889 0)
(-0.129111 -0.0423779 0)
(-0.124149 -0.0491747 0)
(-0.118415 -0.0553759 0)
(-0.111965 -0.0608791 0)
(-0.104864 -0.0655832 0)
(-0.0971912 -0.0693915 0)
(-0.0890373 -0.0722128 0)
(-0.0805055 -0.0739644 0)
(-0.0717112 -0.0745748 0)
(-0.0627819 -0.0739865 0)
(-0.0538562 -0.0721592 0)
(-0.0450824 -0.069073 0)
(-0.0366176 -0.064731 0)
(-0.0286252 -0.0591625 0)
(-0.0212735 -0.0524253 0)
(-0.0147337 -0.0446073 0)
(-0.00917285 -0.0358281 0)
(-0.00474406 -0.0262386 0)
(-0.00164765 -0.016019 0)
(-0.000232307 -0.00538746 0)
(-0.000256365 0.00648994 0)
(-0.00178059 0.0189133 0)
(-0.00507655 0.0305472 0)
(-0.00974533 0.0412153 0)
(-0.0155568 0.050783 0)
(-0.0223403 0.0591473 0)
(-0.0299178 0.0662357 0)
(-0.0381136 0.0720043 0)
(-0.0467606 0.0764348 0)
(-0.0557008 0.0795316 0)
(-0.0647863 0.0813182 0)
(-0.0738792 0.0818343 0)
(-0.0828528 0.081133 0)
(-0.0915907 0.0792777 0)
(-0.0999876 0.0763401 0)
(-0.107948 0.072398 0)
(-0.115388 0.0675334 0)
(-0.122231 0.0618314 0)
(-0.12841 0.0553793 0)
(-0.133867 0.0482658 0)
(-0.138552 0.0405806 0)
(-0.142421 0.0324144 0)
(-0.145439 0.0238588 0)
(-0.147576 0.015007 0)
(-0.14881 0.00595341 0)
(-0.149124 -0.00320522 0)
(-0.148509 -0.0123699 0)
(-0.146963 -0.021439 0)
(-0.144491 -0.030308 0)
(-0.141106 -0.0388692 0)
(-0.136831 -0.0470125 0)
(-0.131696 -0.0546255 0)
(-0.125744 -0.0615942 0)
(-0.119027 -0.0678046 0)
(-0.111612 -0.0731437 0)
(-0.103576 -0.0775018 0)
(-0.0950117 -0.080775 0)
(-0.0860243 -0.0828672 0)
(-0.0767336 -0.0836941 0)
(-0.0672732 -0.0831858 0)
(-0.0577897 -0.0812904 0)
(-0.048442 -0.0779776 0)
(-0.0393994 -0.0732424 0)
(-0.0308397 -0.0671075 0)
(-0.0229473 -0.0596265 0)
(-0.015911 -0.0508861 0)
(-0.00991611 -0.0410072 0)
(-0.00513325 -0.0301446 0)
(-0.00178442 -0.0184853 0)
(-0.000251935 -0.00625727 0)
(-0.000274847 0.00742753 0)
(-0.0019062 0.0215357 0)
(-0.00542986 0.0346588 0)
(-0.0104146 0.0466192 0)
(-0.0166099 0.0572839 0)
(-0.0238293 0.0665538 0)
(-0.0318789 0.0743626 0)
(-0.0405684 0.0806741 0)
(-0.0497179 0.0854793 0)
(-0.0591583 0.0887927 0)
(-0.0687324 0.0906488 0)
(-0.0782953 0.0910989 0)
(-0.0877144 0.0902076 0)
(-0.0968696 0.0880498 0)
(-0.105653 0.0847082 0)
(-0.113968 0.0802715 0)
(-0.121729 0.0748316 0)
(-0.128861 0.0684834 0)
(-0.135299 0.0613228 0)
(-0.140983 0.0534467 0)
(-0.145867 0.0449526 0)
(-0.149907 0.0359382 0)
(-0.153067 0.026502 0)
(-0.15532 0.0167434 0)
(-0.156642 0.00676356 0)
(-0.157017 -0.00333462 0)
(-0.156434 -0.0134454 0)
(-0.154888 -0.0234602 0)
(-0.152383 -0.0332667 0)
(-0.148929 -0.0427492 0)
(-0.144545 -0.0517884 0)
(-0.13926 -0.0602619 0)
(-0.133112 -0.0680447 0)
(-0.126152 -0.0750108 0)
(-0.118444 -0.0810343 0)
(-0.110064 -0.0859918 0)
(-0.101104 -0.0897648 0)
(-0.0916724 -0.0922428 0)
(-0.0818921 -0.0933262 0)
(-0.0719023 -0.0929307 0)
(-0.0618579 -0.0909908 0)
(-0.051928 -0.0874637 0)
(-0.042295 -0.0823337 0)
(-0.0331518 -0.075615 0)
(-0.0247 -0.0673557 0)
(-0.0171473 -0.0576396 0)
(-0.0106988 -0.0465883 0)
(-0.00554429 -0.0343607 0)
(-0.0019294 -0.0211511 0)
(-0.000272901 -0.00719855 0)
(-0.000294128 0.00843031 0)
(-0.00203644 0.0243371 0)
(-0.00579502 0.0390456 0)
(-0.0111045 0.0523765 0)
(-0.0176925 0.0641987 0)
(-0.0253557 0.0744179 0)
(-0.0338835 0.082975 0)
(-0.0430702 0.0898433 0)
(-0.0527222 0.0950248 0)
(-0.0626594 0.0985463 0)
(-0.0727152 0.100455 0)
(-0.0827374 0.100816 0)
(-0.0925882 0.0997073 0)
(-0.102144 0.0972163 0)
(-0.111295 0.0934386 0)
(-0.119945 0.0884743 0)
(-0.128007 0.0824268 0)
(-0.135409 0.0754008 0)
(-0.142085 0.0675015 0)
(-0.147981 0.0588342 0)
(-0.153048 0.0495037 0)
(-0.157247 0.0396149 0)
(-0.160544 0.0292725 0)
(-0.162909 0.0185821 0)
(-0.164321 0.00765029 0)
(-0.164762 -0.00341393 0)
(-0.164221 -0.0144989 0)
(-0.162691 -0.0254896 0)
(-0.160172 -0.0362668 0)
(-0.156672 -0.0467067 0)
(-0.152205 -0.0566815 0)
(-0.146797 -0.0660585 0)
(-0.140483 -0.0747019 0)
(-0.133308 -0.082473 0)
(-0.125333 -0.0892323 0)
(-0.116634 -0.0948416 0)
(-0.107301 -0.0991664 0)
(-0.0974424 -0.102079 0)
(-0.0871845 -0.103465 0)
(-0.0766716 -0.10322 0)
(-0.0660664 -0.101265 0)
(-0.0555487 -0.097541 0)
(-0.045314 -0.092019 0)
(-0.0355712 -0.0847029 0)
(-0.0265405 -0.0756329 0)
(-0.0184501 -0.0648886 0)
(-0.0115263 -0.0525913 0)
(-0.00598038 -0.0389037 0)
(-0.00208387 -0.024028 0)
(-0.000295424 -0.00821589 0)
(-0.000314327 0.00950089 0)
(-0.00217202 0.0273239 0)
(-0.00617382 0.0437162 0)
(-0.0118179 0.0584966 0)
(-0.0188084 0.0715362 0)
(-0.0269237 0.0827466 0)
(-0.0359355 0.0920773 0)
(-0.0456215 0.099513 0)
(-0.0557743 0.105069 0)
(-0.0662018 0.108786 0)
(-0.0767281 0.110727 0)
(-0.0871942 0.110972 0)
(-0.0974576 0.109614 0)
(-0.107392 0.106757 0)
(-0.116886 0.102509 0)
(-0.125843 0.0969835 0)
(-0.13418 0.0902958 0)
(-0.141824 0.0825612 0)
(-0.148715 0.0738947 0)
(-0.154798 0.0644098 0)
(-0.16003 0.054219 0)
(-0.164373 0.0434334 0)
(-0.167794 0.0321638 0)
(-0.170266 0.0205211 0)
(-0.171768 0.00861693 0)
(-0.172281 -0.00343469 0)
(-0.171793 -0.015517 0)
(-0.170295 -0.0275091 0)
(-0.167784 -0.0392856 0)
(-0.164264 -0.0507156 0)
(-0.159746 -0.0616627 0)
(-0.154248 -0.0719846 0)
(-0.147802 -0.0815342 0)
(-0.140448 -0.09016 0)
(-0.132242 -0.0977081 0)
(-0.123256 -0.104024 0)
(-0.113579 -0.108957 0)
(-0.103318 -0.11236 0)
(-0.0926015 -0.114097 0)
(-0.0815778 -0.114049 0)
(-0.0704169 -0.112114 0)
(-0.0593092 -0.108217 0)
(-0.0484637 -0.102312 0)
(-0.0381065 -0.094389 0)
(-0.0284772 -0.084479 0)
(-0.0198263 -0.0726553 0)
(-0.0124039 -0.0590376 0)
(-0.00644463 -0.0437921 0)
(-0.00224908 -0.0271292 0)
(-0.000319726 -0.00931451 0)
(-0.000335573 0.0106422 0)
(-0.00231366 0.0305031 0)
(-0.00656803 0.0486802 0)
(-0.0125577 0.0649897 0)
(-0.0199614 0.0793058 0)
(-0.0285373 0.0915468 0)
(-0.0380381 0.101673 0)
(-0.048224 0.109682 0)
(-0.0588727 0.115605 0)
(-0.0697801 0.1195 0)
(-0.080761 0.121448 0)
(-0.0916496 0.121546 0)
(-0.102299 0.119905 0)
(-0.112582 0.116645 0)
(-0.122386 0.11189 0)
(-0.131617 0.105768 0)
(-0.140193 0.098408 0)
(-0.148046 0.0899353 0)
(-0.155117 0.0804751 0)
(-0.161359 0.0701496 0)
(-0.16673 0.0590782 0)
(-0.171195 0.0473783 0)
(-0.174725 0.0351659 0)
(-0.177295 0.0225562 0)
(-0.178884 0.00966543 0)
(-0.179474 -0.00338867 0)
(-0.179051 -0.016485 0)
(-0.177603 -0.0294982 0)
(-0.175126 -0.0422973 0)
(-0.171617 -0.0547451 0)
(-0.167082 -0.0666973 0)
(-0.161534 -0.0780025 0)
(-0.154999 -0.0885024 0)
(-0.147509 -0.0980324 0)
(-0.139117 -0.106424 0)
(-0.129887 -0.113505 0)
(-0.119904 -0.119105 0)
(-0.109274 -0.123057 0)
(-0.098126 -0.125205 0)
(-0.0866111 -0.125405 0)
(-0.0749059 -0.123534 0)
(-0.0632109 -0.119495 0)
(-0.0517491 -0.113222 0)
(-0.0407642 -0.10469 0)
(-0.0305171 -0.0939154 0)
(-0.0212825 -0.0809635 0)
(-0.0133365 -0.065951 0)
(-0.00694012 -0.0490466 0)
(-0.00242627 -0.0304695 0)
(-0.000346031 -0.0105003 0)
(-0.000358004 0.0118576 0)
(-0.00246218 0.033883 0)
(-0.00697961 0.0539483 0)
(-0.013327 0.0718672 0)
(-0.0211551 0.0875172 0)
(-0.0302002 0.100825 0)
(-0.040194 0.111764 0)
(-0.050878 0.120348 0)
(-0.0620142 0.126625 0)
(-0.0733861 0.130674 0)
(-0.0847993 0.132596 0)
(-0.0960818 0.13251 0)
(-0.107084 0.130547 0)
(-0.117676 0.126844 0)
(-0.127748 0.121544 0)
(-0.137208 0.11479 0)
(-0.145979 0.106724 0)
(-0.153997 0.0974854 0)
(-0.161208 0.0872079 0)
(-0.167571 0.0760222 0)
(-0.173047 0.064055 0)
(-0.177608 0.0514289 0)
(-0.181227 0.0382644 0)
(-0.183882 0.0246803 0)
(-0.185554 0.0107959 0)
(-0.186223 -0.0032681 0)
(-0.185876 -0.0173878 0)
(-0.184499 -0.0314342 0)
(-0.182082 -0.0452724 0)
(-0.178619 -0.0587595 0)
(-0.174109 -0.0717446 0)
(-0.168559 -0.0840675 0)
(-0.161985 -0.0955591 0)
(-0.154414 -0.106042 0)
(-0.145888 -0.115331 0)
(-0.136466 -0.123237 0)
(-0.126228 -0.129569 0)
(-0.115274 -0.134138 0)
(-0.103731 -0.136761 0)
(-0.0917544 -0.13727 0)
(-0.0795243 -0.135515 0)
(-0.0672513 -0.131374 0)
(-0.0551724 -0.124759 0)
(-0.0435497 -0.115622 0)
(-0.0326668 -0.103963 0)
(-0.0228249 -0.0898377 0)
(-0.0143292 -0.0733563 0)
(-0.00746999 -0.0546896 0)
(-0.00261678 -0.034065 0)
(-0.000374582 -0.0117799 0)
(-0.000381784 0.013151 0)
(-0.00261848 0.0374726 0)
(-0.00741078 0.0595324 0)
(-0.0141293 0.079141 0)
(-0.0223938 0.0961806 0)
(-0.0319165 0.110588 0)
(-0.0424057 0.122351 0)
(-0.053583 0.131503 0)
(-0.0651938 0.138114 0)
(-0.0770088 0.142285 0)
(-0.0888246 0.144144 0)
(-0.100464 0.14383 0)
(-0.111774 0.141499 0)
(-0.122626 0.137309 0)
(-0.132914 0.131422 0)
(-0.142548 0.123999 0)
(-0.151459 0.115196 0)
(-0.159587 0.105164 0)
(-0.166888 0.0940489 0)
(-0.173323 0.0819884 0)
(-0.178865 0.0691156 0)
(-0.183487 0.0555582 0)
(-0.187168 0.04144 0)
(-0.18989 0.0268824 0)
(-0.191635 0.0120063 0)
(-0.192386 -0.0030661 0)
(-0.192126 -0.0182093 0)
(-0.190841 -0.0332923 0)
(-0.188515 -0.0481775 0)
(-0.185137 -0.0627179 0)
(-0.180701 -0.0767568 0)
(-0.175203 -0.0901264 0)
(-0.168651 -0.102647 0)
(-0.161062 -0.114129 0)
(-0.152469 -0.124371 0)
(-0.142921 -0.133165 0)
(-0.132489 -0.140297 0)