/*--------------------------------*- C++ -*----------------------------------*\
  =========                 |
  \\      /  F ield         | OpenFOAM: The Open Source CFD Toolbox
   \\    /   O peration     | Website:  https://openfoam.org
    \\  /    A nd           | Version:  7
     \\/     M anipulation  |
\*---------------------------------------------------------------------------*/
FoamFile
{
    version     2.0;
    format      ascii;
    class       volScalarField;
    location    "0.0118";
    object      p;
}
// * * * * * * * * * * * * * * * * * * * * * * * * * * * * * * * * * * * * * //

dimensions      [0 2 -2 0 0 0 0];

internalField   nonuniform List<scalar> 
2500
(
-1.67143e-07
6.38294
9.0425
10.1314
10.7172
11.061
11.2712
11.4097
11.5084
11.5831
11.6428
11.6927
11.7362
11.7755
11.8119
11.8464
11.8797
11.9122
11.9442
11.9758
12.0074
12.0388
12.0702
12.1017
12.1334
12.1652
12.1972
12.2296
12.2624
12.2958
12.33
12.3651
12.4015
12.4395
12.4798
12.5229
12.5699
12.6221
12.6813
12.75
12.8322
12.9336
13.0636
13.239
13.4919
13.8865
14.5397
15.724
18.4996
25.0055
4.8697
7.46749
8.88109
9.75954
10.3582
10.7607
11.0331
11.2243
11.3639
11.4699
11.5534
11.6216
11.6793
11.7297
11.775
11.8166
11.8555
11.8926
11.9284
11.9632
11.9973
12.031
12.0644
12.0977
12.1309
12.1643
12.1979
12.232
12.2666
12.302
12.3385
12.3764
12.4161
12.4583
12.5036
12.5531
12.608
12.6703
12.7425
12.828
12.9322
13.0627
13.2314
13.4568
13.7696
14.2204
14.8791
15.8308
17.3303
20.0442
7.71044
8.47124
9.21043
9.82949
10.3118
10.6708
10.9358
11.1338
11.2847
11.4025
11.4968
11.5745
11.6403
11.6975
11.7483
11.7946
11.8374
11.8778
11.9163
11.9534
11.9894
12.0248
12.0597
12.0943
12.1288
12.1634
12.1982
12.2335
12.2694
12.3063
12.3444
12.3842
12.4262
12.471
12.5196
12.573
12.6327
12.7007
12.7798
12.8735
12.9872
13.1279
13.3059
13.5359
13.8382
14.2407
14.7737
15.4478
16.2417
17.0656
9.12612
9.29926
9.67441
10.0715
10.4171
10.7
10.9267
11.1071
11.2514
11.3683
11.4645
11.5453
11.6146
11.6751
11.7292
11.7784
11.8238
11.8663
11.9068
11.9455
11.9831
12.0198
12.0558
12.0915
12.1269
12.1624
12.1982
12.2344
12.2713
12.3092
12.3485
12.3896
12.433
12.4795
12.53
12.5855
12.6476
12.7182
12.7997
12.8954
13.0097
13.1481
13.3178
13.5277
13.7881
14.1091
14.4958
14.9341
15.3449
15.5471
9.94499
9.9194
10.0911
10.3309
10.5668
10.7791
10.9624
11.1173
11.2473
11.3567
11.4496
11.5295
11.5991
11.6607
11.7162
11.7669
11.8138
11.8578
11.8995
11.9395
11.9781
12.0158
12.0527
12.0892
12.1254
12.1617
12.1981
12.235
12.2726
12.3113
12.3514
12.3934
12.4377
12.4852
12.5366
12.5931
12.6559
12.7268
12.8079
12.9018
13.0117
13.1414
13.2952
13.4773
13.691
13.9357
14.2045
14.4744
14.6685
14.6536
10.4623
10.371
10.4354
10.5737
10.7296
10.8836
11.0264
11.1541
11.2664
11.3646
11.4507
11.5265
11.5939
11.6546
11.7098
11.7607
11.808
11.8526
11.895
11.9356
11.9749
12.0131
12.0507
12.0877
12.1245
12.1612
12.1981
12.2355
12.2736
12.3128
12.3533
12.3957
12.4404
12.4882
12.5397
12.596
12.6582
12.7277
12.8062
12.8955
12.9978
13.1153
13.2499
13.4026
13.5723
13.7537
13.9356
14.0954
14.1729
14.0816
10.8078
10.7033
10.7142
10.7896
10.8894
10.998
11.1061
11.2083
11.3024
11.3877
11.4649
11.5348
11.5982
11.6563
11.7099
11.7598
11.8067
11.8511
11.8934
11.9341
11.9736
12.0121
12.0499
12.0872
12.1242
12.1612
12.1984
12.236
12.2743
12.3136
12.3543
12.3967
12.4413
12.4888
12.5398
12.595
12.6555
12.7223
12.7965
12.8795
12.9724
13.0762
13.1909
13.3158
13.4474
13.5789
13.6989
13.7894
13.8071
13.6973
11.0526
10.9532
10.9383
10.9753
11.037
11.1118
11.1919
11.2719
11.3489
11.4214
11.4891
11.552
11.6104
11.6648
11.7158
11.7639
11.8095
11.853
11.8947
11.9351
11.9743
12.0127
12.0504
12.0877
12.1247
12.1618
12.199
12.2366
12.2749
12.3141
12.3546
12.3967
12.4409
12.4876
12.5374
12.5909
12.6489
12.7121
12.7812
12.857
12.9398
13.0297
13.1259
13.2262
13.3265
13.42
13.4971
13.5445
13.5322
13.4252
11.2352
11.1457
11.1187
11.1327
11.1688
11.2191
11.2774
11.3391
11.4011
11.4618
11.5201
11.5757
11.6286
11.6788
11.7266
11.7722
11.8159
11.858
11.8987
11.9383
11.9769
12.0149
12.0522
12.0893
12.1261
12.1629
12.2
12.2374
12.2755
12.3144
12.3544
12.396
12.4393
12.4849
12.5331
12.5844
12.6394
12.6985
12.762
12.8303
12.9032
12.9801
13.0596
13.1392
13.2147
13.28
13.3277
13.3484
13.3215
13.2236
11.3766
11.2971
11.2651
11.2653
11.2845
11.3173
11.359
11.406
11.4554
11.5056
11.5553
11.6039
11.6511
11.6969
11.7411
11.7839
11.8254
11.8657
11.905
11.9435
11.9812
12.0184
12.0552
12.0918
12.1282
12.1647
12.2014
12.2384
12.276
12.3145
12.3539
12.3946
12.4368
12.481
12.5273
12.5762
12.6278
12.6826
12.7405
12.8014
12.8649
12.93
12.9952
13.0576
13.1138
13.1585
13.1861
13.1905
13.157
13.0692
11.4888
11.4184
11.3849
11.3771
11.3851
11.4055
11.4349
11.4703
11.5093
11.5504
11.5924
11.6346
11.6764
11.7177
11.7583
11.7981
11.8371
11.8755
11.9131
11.9503
11.9869
12.0232
12.0593
12.0951
12.131
12.1669
12.2031
12.2396
12.2766
12.3144
12.353
12.3927
12.4337
12.4762
12.5205
12.5667
12.6149
12.6653
12.7176
12.7716
12.8266
12.8814
12.9343
12.983
13.0242
13.0539
13.068
13.0624
13.0266
12.9483
11.5795
11.5168
11.4838
11.4713
11.4721
11.4837
11.504
11.5303
11.561
11.5945
11.6299
11.6662
11.7031
11.7402
11.7772
11.814
11.8505
11.8867
11.9227
11.9583
11.9937
12.0289
12.0641
12.0991
12.1343
12.1695
12.205
12.2409
12.2772
12.3142
12.3518
12.3904
12.43
12.4708
12.5129
12.5563
12.6012
12.6472
12.6944
12.742
12.7893
12.8352
12.8781
12.9158
12.9456
12.9644
12.9694
12.9579
12.922
12.8521
11.6537
11.5977
11.5659
11.5509
11.547
11.5526
11.566
11.5855
11.6095
11.6367
11.6664
11.6977
11.7301
11.7633
11.7969
11.8308
11.8649
11.899
11.9331
11.9672
12.0012
12.0353
12.0694
12.1036
12.1379
12.1724
12.2072
12.2423
12.2778
12.3138
12.3504
12.3878
12.4259
12.4649
12.5048
12.5455
12.587
12.6291
12.6713
12.7132
12.7539
12.7923
12.8268
12.8558
12.877
12.888
12.8869
12.872
12.8373
12.7748
11.7149
11.6646
11.6344
11.6183
11.6114
11.6127
11.6212
11.6354
11.6541
11.6763
11.7011
11.7281
11.7566
11.7862
11.8168
11.8479
11.8796
11.9116
11.9439
11.9765
12.0092
12.042
12.0751
12.1083
12.1417
12.1754
12.2093
12.2436
12.2782
12.3133
12.3488
12.3849
12.4215
12.4587
12.4964
12.5345
12.5728
12.6112
12.649
12.6859
12.7208
12.7529
12.7807
12.8028
12.8175
12.823
12.8179
12.8013
12.7682
12.7123
11.7655
11.7202
11.6919
11.6753
11.6665
11.665
11.6698
11.68
11.6945
11.7126
11.7335
11.7567
11.7818
11.8084
11.8361
11.8648
11.8942
11.9243
11.9549
11.9859
12.0172
12.0489
12.0809
12.1131
12.1456
12.1784
12.2115
12.2449
12.2786
12.3127
12.3471
12.3818
12.4169
12.4523
12.4879
12.5235
12.559
12.5939
12.6279
12.6603
12.6903
12.7171
12.7396
12.7564
12.7662
12.7677
12.7601
12.7427
12.7117
12.6614
11.8076
11.7665
11.74
11.7235
11.7137
11.7101
11.7123
11.7194
11.7307
11.7454
11.7631
11.7832
11.8054
11.8292
11.8545
11.8809
11.9083
11.9366
11.9655
11.9951
12.0251
12.0556
12.0865
12.1178
12.1494
12.1813
12.2135
12.246
12.2788
12.3119
12.3452
12.3786
12.4123
12.446
12.4796
12.5129
12.5457
12.5776
12.6081
12.6367
12.6626
12.6851
12.7032
12.7159
12.7221
12.7209
12.7117
12.6942
12.6653
12.62
11.8426
11.805
11.7803
11.7642
11.7538
11.7489
11.7492
11.7539
11.7627
11.7748
11.7898
11.8073
11.827
11.8485
11.8716
11.896
11.9216
11.9482
11.9756
12.0038
12.0327
12.0621
12.092
12.1223
12.153
12.1841
12.2154
12.247
12.2789
12.311
12.3432
12.3754
12.4077
12.4398
12.4715
12.5028
12.5332
12.5624
12.5899
12.6153
12.6378
12.6568
12.6715
12.681
12.6845
12.6814
12.6712
12.6541
12.6271
12.5862
11.8715
11.8371
11.8139
11.7983
11.7876
11.7819
11.7807
11.7838
11.7905
11.8005
11.8134
11.8288
11.8464
11.8659
11.8871
11.9098
11.9338
11.9589
11.985
12.012
12.0397
12.0681
12.097
12.1264
12.1563
12.1865
12.2171
12.2479
12.2789
12.31
12.3412
12.3723
12.4032
12.4339
12.464
12.4933
12.5216
12.5485
12.5735
12.5962
12.6159
12.6321
12.644
12.6511
12.6527
12.6483
12.6377
12.621
12.5959
12.5587
11.8954
11.8635
11.8417
11.8266
11.8159
11.8096
11.8075
11.8092
11.8144
11.8228
11.8339
11.8475
11.8634
11.8813
11.9009
11.9221
11.9447
11.9686
11.9935
12.0193
12.046
12.0735
12.1016
12.1302
12.1593
12.1887
12.2185
12.2486
12.2787
12.309
12.3392
12.3693
12.3991
12.4284
12.457
12.4847
12.5112
12.5361
12.559
12.5794
12.5969
12.6108
12.6206
12.6259
12.626
12.6207
12.61
12.5939
12.5705
12.5364
11.9147
11.885
11.8645
11.8499
11.8392
11.8326
11.8298
11.8305
11.8346
11.8416
11.8513
11.8636
11.8781
11.8945
11.9129
11.9328
11.9542
11.977
12.0009
12.0258
12.0516
12.0783
12.1056
12.1335
12.1618
12.1906
12.2198
12.2491
12.2785
12.308
12.3374
12.3666
12.3953
12.4235
12.4509
12.4772
12.5021
12.5253
12.5465
12.5651
12.5807
12.5928
12.601
12.6049
12.604
12.5982
12.5874
12.572
12.55
12.5185
11.9302
11.9022
11.8827
11.8686
11.858
11.8512
11.8479
11.8479
11.8511
11.8571
11.8658
11.8769
11.8903
11.9056
11.9229
11.9418
11.9623
11.9841
12.0072
12.0313
12.0564
12.0823
12.109
12.1362
12.164
12.1922
12.2207
12.2495
12.2783
12.3071
12.3358
12.3641
12.392
12.4192
12.4455
12.4707
12.4944
12.5163
12.536
12.5531
12.5673
12.5781
12.585
12.5879
12.5863
12.5801
12.5694
12.5545
12.5338
12.5044
11.9421
11.9155
11.8968
11.8831
11.8727
11.8657
11.862
11.8616
11.8641
11.8694
11.8772
11.8875
11.9
11.9145
11.931
11.9491
11.9688
11.9899
12.0122
12.0357
12.0602
12.0856
12.1117
12.1385
12.1658
12.1935
12.2215
12.2497
12.2781
12.3063
12.3344
12.3621
12.3893
12.4157
12.4412
12.4654
12.4881
12.5089
12.5275
12.5436
12.5567
12.5664
12.5725
12.5746
12.5725
12.5661
12.5555
12.5411
12.5214
12.4936
11.9508
11.9253
11.9071
11.8937
11.8834
11.8764
11.8725
11.8717
11.8737
11.8785
11.8858
11.8954
11.9073
11.9212
11.937
11.9546
11.9737
11.9942
12.0161
12.0391
12.0631
12.0881
12.1138
12.1401
12.1671
12.1944
12.2221
12.2499
12.2778
12.3057
12.3333
12.3605
12.3872
12.413
12.4378
12.4614
12.4833
12.5034
12.5212
12.5364
12.5487
12.5577
12.5632
12.5648
12.5624
12.5559
12.5454
12.5314
12.5123
12.4858
11.9565
11.9316
11.9138
11.9007
11.8905
11.8834
11.8794
11.8784
11.8801
11.8845
11.8915
11.9007
11.9122
11.9257
11.9411
11.9582
11.9769
11.9971
12.0186
12.0413
12.0651
12.0897
12.1152
12.1413
12.1679
12.195
12.2224
12.25
12.2777
12.3052
12.3325
12.3594
12.3857
12.4112
12.4356
12.4587
12.4801
12.4997
12.517
12.5317
12.5435
12.552
12.557
12.5583
12.5557
12.5491
12.5388
12.525
12.5065
12.4807
11.9593
11.9348
11.9172
11.9041
11.894
11.8869
11.8828
11.8817
11.8833
11.8876
11.8943
11.9033
11.9146
11.9279
11.9431
11.96
11.9786
11.9986
12.0199
12.0425
12.066
12.0906
12.1159
12.1418
12.1684
12.1953
12.2226
12.2501
12.2776
12.305
12.3322
12.3589
12.385
12.4103
12.4345
12.4573
12.4785
12.4978
12.5149
12.5293
12.5408
12.5491
12.554
12.5551
12.5524
12.5458
12.5355
12.5219
12.5036
12.4782
11.9593
11.9348
11.9172
11.9041
11.894
11.8869
11.8828
11.8817
11.8833
11.8876
11.8943
11.9033
11.9146
11.9279
11.9431
11.96
11.9786
11.9986
12.0199
12.0425
12.066
12.0906
12.1159
12.1418
12.1684
12.1953
12.2226
12.2501
12.2776
12.305
12.3322
12.3589
12.385
12.4103
12.4345
12.4573
12.4785
12.4978
12.5149
12.5293
12.5408
12.5491
12.554
12.5551
12.5524
12.5458
12.5355
12.5219
12.5036
12.4782
11.9565
11.9316
11.9138
11.9007
11.8905
11.8834
11.8794
11.8784
11.8801
11.8845
11.8915
11.9007
11.9122
11.9257
11.9411
11.9582
11.9769
11.9971
12.0186
12.0413
12.0651
12.0897
12.1152
12.1413
12.1679
12.195
12.2224
12.25
12.2777
12.3052
12.3325
12.3594
12.3857
12.4112
12.4356
12.4587
12.4801
12.4997
12.517
12.5317
12.5435
12.552
12.557
12.5583
12.5557
12.5491
12.5388
12.525
12.5065
12.4807
11.9508
11.9253
11.9071
11.8937
11.8834
11.8764
11.8725
11.8717
11.8737
11.8785
11.8858
11.8954
11.9073
11.9212
11.937
11.9546
11.9737
11.9942
12.0161
12.0391
12.0631
12.0881
12.1138
12.1401
12.1671
12.1944
12.2221
12.2499
12.2778
12.3057
12.3333
12.3605
12.3872
12.413
12.4378
12.4614
12.4833
12.5034
12.5212
12.5364
12.5487
12.5577
12.5632
12.5648
12.5624
12.5558
12.5454
12.5314
12.5123
12.4858
11.9421
11.9155
11.8968
11.8831
11.8727
11.8657
11.862
11.8616
11.8641
11.8694
11.8772
11.8875
11.9
11.9145
11.931
11.9491
11.9688
11.9899
12.0122
12.0357
12.0602
12.0856
12.1117
12.1385
12.1658
12.1935
12.2215
12.2497
12.2781
12.3063
12.3344
12.3621
12.3893
12.4157
12.4412
12.4654
12.4881
12.5089
12.5275
12.5436
12.5567
12.5664
12.5725
12.5746
12.5725
12.5661
12.5555
12.5411
12.5214
12.4936
11.9302
11.9022
11.8827
11.8686
11.858
11.8512
11.8479
11.8479
11.8511
11.8571
11.8658
11.8769
11.8903
11.9056
11.9229
11.9418
11.9623
11.9841
12.0072
12.0313
12.0564
12.0823
12.109
12.1362
12.164
12.1922
12.2207
12.2495
12.2783
12.3071
12.3358
12.3641
12.392
12.4192
12.4455
12.4707
12.4944
12.5163
12.536
12.5531
12.5673
12.5781
12.585
12.5879
12.5863
12.5801
12.5694
12.5545
12.5338
12.5044
11.9147
11.885
11.8645
11.8499
11.8392
11.8326
11.8298
11.8305
11.8346
11.8416
11.8513
11.8636
11.8781
11.8945
11.9129
11.9328
11.9542
11.977
12.0009
12.0258
12.0516
12.0783
12.1056
12.1335
12.1618
12.1906
12.2198
12.2491
12.2785
12.308
12.3374
12.3666
12.3953
12.4235
12.4509
12.4772
12.5021
12.5253
12.5465
12.5651
12.5807
12.5928
12.601
12.6049
12.604
12.5982
12.5874
12.572
12.55
12.5185
11.8954
11.8635
11.8417
11.8266
11.8159
11.8096
11.8075
11.8092
11.8144
11.8228
11.8339
11.8475
11.8634
11.8813
11.9009
11.9221
11.9447
11.9686
11.9935
12.0193
12.0461
12.0735
12.1016
12.1302
12.1593
12.1887
12.2185
12.2486
12.2787
12.309
12.3392
12.3693
12.3991
12.4284
12.457
12.4847
12.5112
12.5361
12.559
12.5794
12.5969
12.6108
12.6206
12.6258
12.626
12.6207
12.61
12.5939
12.5705
12.5364
11.8715
11.8371
11.8139
11.7983
11.7876
11.7819
11.7807
11.7838
11.7905
11.8005
11.8134
11.8288
11.8464
11.8659
11.8871
11.9098
11.9338
11.9589
11.985
12.012
12.0397
12.0681
12.097
12.1264
12.1563
12.1865
12.2171
12.2479
12.2789
12.31
12.3412
12.3723
12.4032
12.4339
12.464
12.4933
12.5216
12.5485
12.5735
12.5962
12.6159
12.6321
12.644
12.6511
12.6527
12.6483
12.6377
12.621
12.5959
12.5587
11.8426
11.805
11.7803
11.7642
11.7538
11.7489
11.7492
11.7539
11.7627
11.7748
11.7898
11.8073
11.827
11.8485
11.8716
11.896
11.9216
11.9482
11.9757
12.0038
12.0327
12.0621
12.092
12.1223
12.153
12.1841
12.2154
12.247
12.2789
12.311
12.3432
12.3754
12.4077
12.4398
12.4715
12.5028
12.5331
12.5624
12.5899
12.6153
12.6378
12.6568
12.6715
12.681
12.6845
12.6814
12.6712
12.6541
12.6271
12.5862
11.8076
11.7665
11.74
11.7235
11.7137
11.7101
11.7123
11.7194
11.7307
11.7454
11.7631
11.7832
11.8054
11.8292
11.8545
11.8809
11.9083
11.9366
11.9655
11.9951
12.0251
12.0556
12.0865
12.1178
12.1494
12.1813
12.2135
12.246
12.2788
12.3119
12.3452
12.3786
12.4123
12.446
12.4796
12.5129
12.5457
12.5776
12.6081
12.6367
12.6626
12.6851
12.7032
12.7159
12.7221
12.7209
12.7117
12.6942
12.6652
12.62
11.7655
11.7202
11.6919
11.6753
11.6665
11.665
11.6698
11.68
11.6945
11.7126
11.7335
11.7567
11.7818
11.8084
11.8361
11.8648
11.8942
11.9243
11.9549
11.9859
12.0172
12.0489
12.0809
12.1131
12.1456
12.1784
12.2115
12.2449
12.2786
12.3127
12.3471
12.3818
12.4169
12.4523
12.4879
12.5235
12.559
12.5939
12.6279
12.6603
12.6903
12.7171
12.7395
12.7563
12.7662
12.7677
12.76
12.7427
12.7117
12.6614
11.7149
11.6646
11.6344
11.6183
11.6114
11.6127
11.6212
11.6354
11.6541
11.6763
11.7011
11.7281
11.7566
11.7862
11.8168
11.848
11.8796
11.9116
11.9439
11.9765
12.0092
12.042
12.0751
12.1083
12.1417
12.1754
12.2093
12.2436
12.2782
12.3133
12.3488
12.3849
12.4215
12.4587
12.4964
12.5345
12.5728
12.6112
12.649
12.6859
12.7208
12.7528
12.7807
12.8028
12.8175
12.823
12.8179
12.8012
12.7682
12.7123
11.6537
11.5977
11.5659
11.5509
11.547
11.5526
11.566
11.5855
11.6095
11.6367
11.6664
11.6977
11.7301
11.7633
11.7969
11.8308
11.8649
11.899
11.9331
11.9672
12.0012
12.0353
12.0694
12.1036
12.1379
12.1724
12.2072
12.2423
12.2778
12.3138
12.3504
12.3878
12.4259
12.4649
12.5048
12.5455
12.587
12.6291
12.6713
12.7132
12.7539
12.7923
12.8268
12.8558
12.877
12.888
12.8869
12.872
12.8373
12.7748
11.5795
11.5168
11.4838
11.4713
11.4721
11.4837
11.504
11.5303
11.561
11.5945
11.6299
11.6662
11.7031
11.7402
11.7772
11.814
11.8505
11.8867
11.9227
11.9583
11.9937
12.0289
12.0641
12.0991
12.1343
12.1695
12.205
12.2409
12.2772
12.3142
12.3518
12.3904
12.43
12.4708
12.5129
12.5563
12.6011
12.6472
12.6943
12.742
12.7893
12.8352
12.8781
12.9157
12.9456
12.9644
12.9694
12.9579
12.922
12.8521
11.4888
11.4184
11.3849
11.3771
11.3851
11.4055
11.4349
11.4703
11.5093
11.5504
11.5924
11.6346
11.6764
11.7177
11.7583
11.7981
11.8371
11.8755
11.9131
11.9503
11.9869
12.0232
12.0593
12.0951
12.131
12.1669
12.2031
12.2396
12.2766
12.3144
12.353
12.3927
12.4337
12.4762
12.5205
12.5667
12.6149
12.6653
12.7176
12.7716
12.8266
12.8814
12.9343
12.983
13.0242
13.0539
13.068
13.0624
13.0266
12.9482
11.3766
11.2971
11.2651
11.2653
11.2845
11.3173
11.359
11.406
11.4554
11.5056
11.5553
11.6039
11.6511
11.6969
11.7411
11.7839
11.8254
11.8657
11.905
11.9435
11.9812
12.0184
12.0552
12.0918
12.1282
12.1647
12.2014
12.2384
12.276
12.3145
12.3539
12.3946
12.4368
12.481
12.5273
12.5762
12.6278
12.6826
12.7405
12.8014
12.8649
12.93
12.9951
13.0576
13.1138
13.1585
13.1861
13.1904
13.157
13.0692
11.2352
11.1457
11.1187
11.1327
11.1688
11.2191
11.2774
11.3391
11.4011
11.4618
11.5201
11.5757
11.6286
11.6788
11.7266
11.7722
11.8159
11.858
11.8987
11.9383
11.9769
12.0149
12.0522
12.0893
12.1261
12.1629
12.2
12.2374
12.2755
12.3144
12.3544
12.396
12.4393
12.4849
12.5331
12.5844
12.6394
12.6985
12.762
12.8303
12.9032
12.9801
13.0596
13.1392
13.2147
13.28
13.3276
13.3484
13.3215
13.2236
11.0526
10.9532
10.9383
10.9753
11.037
11.1118
11.1919
11.2719
11.3489
11.4214
11.4891
11.552
11.6104
11.6648
11.7158
11.7639
11.8095
11.853
11.8947
11.9351
11.9743
12.0127
12.0504
12.0877
12.1247
12.1618
12.199
12.2366
12.2749
12.3141
12.3546
12.3967
12.4409
12.4876
12.5374
12.5909
12.6489
12.7121
12.7812
12.857
12.9398
13.0297
13.1259
13.2262
13.3265
13.42
13.4971
13.5445
13.5322
13.4252
10.8078
10.7033
10.7142
10.7896
10.8894
10.998
11.1061
11.2083
11.3024
11.3877
11.4649
11.5348
11.5982
11.6563
11.7099
11.7598
11.8067
11.8511
11.8934
11.9341
11.9736
12.0121
12.0499
12.0872
12.1242
12.1612
12.1984
12.236
12.2743
12.3136
12.3543
12.3967
12.4413
12.4888
12.5397
12.595
12.6555
12.7223
12.7965
12.8795
12.9724
13.0761
13.1909
13.3158
13.4474
13.5789
13.6989
13.7894
13.8071
13.6973
10.4623
10.371
10.4354
10.5737
10.7296
10.8836
11.0264
11.1541
11.2664
11.3646
11.4507
11.5265
11.5939
11.6546
11.7098
11.7607
11.808
11.8526
11.895
11.9356
11.9749
12.0131
12.0507
12.0877
12.1245
12.1612
12.1981
12.2355
12.2736
12.3128
12.3533
12.3957
12.4404
12.4882
12.5397
12.596
12.6582
12.7277
12.8062
12.8955
12.9978
13.1153
13.2498
13.4026
13.5723
13.7537
13.9356
14.0954
14.1728
14.0816
9.94499
9.9194
10.0911
10.3309
10.5668
10.7791
10.9624
11.1173
11.2473
11.3567
11.4496
11.5295
11.5991
11.6607
11.7162
11.7669
11.8138
11.8578
11.8995
11.9395
11.9781
12.0158
12.0527
12.0892
12.1254
12.1617
12.1981
12.235
12.2727
12.3113
12.3514
12.3934
12.4377
12.4852
12.5366
12.5931
12.6559
12.7268
12.8079
12.9018
13.0117
13.1414
13.2952
13.4773
13.691
13.9357
14.2045
14.4744
14.6685
14.6536
9.12612
9.29926
9.67441
10.0715
10.4171
10.7
10.9267
11.1071
11.2514
11.3683
11.4645
11.5453
11.6146
11.6752
11.7292
11.7784
11.8238
11.8663
11.9068
11.9455
11.9831
12.0198
12.0558
12.0915
12.1269
12.1624
12.1982
12.2344
12.2713
12.3092
12.3485
12.3896
12.433
12.4795
12.53
12.5855
12.6476
12.7182
12.7997
12.8954
13.0097
13.1481
13.3178
13.5277
13.7881
14.109
14.4958
14.9341
15.3449
15.5471
7.71044
8.47124
9.21043
9.82949
10.3118
10.6708
10.9358
11.1338
11.2847
11.4025
11.4968
11.5745
11.6403
11.6975
11.7483
11.7946
11.8374
11.8778
11.9163
11.9534
11.9894
12.0248
12.0597
12.0943
12.1288
12.1634
12.1982
12.2335
12.2694
12.3063
12.3444
12.3842
12.4262
12.471
12.5196
12.573
12.6327
12.7007
12.7798
12.8735
12.9871
13.1279
13.3059
13.5359
13.8381
14.2407
14.7737
15.4478
16.2417
17.0656
4.8697
7.46749
8.88109
9.75954
10.3582
10.7607
11.0331
11.2243
11.364
11.4699
11.5534
11.6216
11.6793
11.7297
11.775
11.8166
11.8555
11.8926
11.9284
11.9632
11.9973
12.031
12.0644
12.0977
12.1309
12.1643
12.1979
12.232
12.2666
12.302
12.3385
12.3764
12.4161
12.4583
12.5036
12.5531
12.608
12.6703
12.7425
12.828
12.9322
13.0627
13.2314
13.4568
13.7696
14.2204
14.8791
15.8308
17.3303
20.0442
-5.3335e-07
6.38294
9.0425
10.1314
10.7172
11.061
11.2712
11.4097
11.5084
11.5831
11.6428
11.6927
11.7362
11.7755
11.8119
11.8464
11.8797
11.9122
11.9442
11.9758
12.0074
12.0388
12.0702
12.1018
12.1334
12.1652
12.1972
12.2296
12.2624
12.2958
12.33
12.3651
12.4015
12.4395
12.4798
12.5229
12.5699
12.6221
12.6813
12.75
12.8322
12.9336
13.0636
13.239
13.4919
13.8865
14.5397
15.724
18.4996
25.0055
)
;

boundaryField
{
    movingWallTop
    {
        type            zeroGradient;
    }
    movingWallBottom
    {
        type            zeroGradient;
    }
    fixedWalls
    {
        type            zeroGradient;
    }
    frontAndBack
    {
        type            empty;
    }
}


// ************************************************************************* //
