/*--------------------------------*- C++ -*----------------------------------*\
  =========                 |
  \\      /  F ield         | OpenFOAM: The Open Source CFD Toolbox
   \\    /   O peration     | Website:  https://openfoam.org
    \\  /    A nd           | Version:  7
     \\/     M anipulation  |
\*---------------------------------------------------------------------------*/
FoamFile
{
    version     2.0;
    format      ascii;
    class       surfaceScalarField;
    location    "0.052";
    object      phi;
}
// * * * * * * * * * * * * * * * * * * * * * * * * * * * * * * * * * * * * * //

dimensions      [0 3 -1 0 0 0 0];

internalField   nonuniform List<scalar> 
4900
(
-5.55554e-06
5.55553e-06
-1.01612e-05
4.60564e-06
-1.29489e-05
2.7877e-06
-1.4669e-05
1.72016e-06
-1.57714e-05
1.10237e-06
-1.651e-05
7.38632e-07
-1.70303e-05
5.2031e-07
-1.74143e-05
3.83922e-07
-1.77084e-05
2.94153e-07
-1.79404e-05
2.31967e-07
-1.81273e-05
1.86929e-07
-1.82804e-05
1.53071e-07
-1.84072e-05
1.26808e-07
-1.85131e-05
1.05879e-07
-1.86019e-05
8.87945e-08
-1.86764e-05
7.45373e-08
-1.87388e-05
6.23883e-08
-1.87906e-05
5.18258e-08
-1.88331e-05
4.24617e-08
-1.88671e-05
3.40006e-08
-1.88933e-05
2.62126e-08
-1.89122e-05
1.89145e-08
-1.89242e-05
1.19561e-08
-1.89294e-05
5.21103e-09
-1.89279e-05
-1.43218e-09
-1.89199e-05
-8.0731e-09
-1.89051e-05
-1.48099e-08
-1.88833e-05
-2.174e-08
-1.88544e-05
-2.89677e-08
-1.88177e-05
-3.66102e-08
-1.87729e-05
-4.48052e-08
-1.87192e-05
-5.3721e-08
-1.86556e-05
-6.35703e-08
-1.8581e-05
-7.46291e-08
-1.84938e-05
-8.72652e-08
-1.83918e-05
-1.0198e-07
-1.82723e-05
-1.19473e-07
-1.81316e-05
-1.4075e-07
-1.79643e-05
-1.67298e-07
-1.77628e-05
-2.01403e-07
-1.75161e-05
-2.46717e-07
-1.72068e-05
-3.09327e-07
-1.6807e-05
-3.99816e-07
-1.62698e-05
-5.37224e-07
-1.55137e-05
-7.56028e-07
-1.43978e-05
-1.11591e-06
-1.26826e-05
-1.71524e-06
-9.94651e-06
-2.73607e-06
-5.45264e-06
-4.49387e-06
-5.45264e-06
-1.19183e-08
5.56745e-06
-2.13043e-06
6.72415e-06
-4.85731e-06
5.51458e-06
-7.27414e-06
4.137e-06
-9.21188e-06
3.04011e-06
-1.07233e-05
2.25002e-06
-1.19016e-05
1.69866e-06
-1.28299e-05
1.31225e-06
-1.35716e-05
1.03585e-06
-1.41727e-05
8.33009e-07
-1.46659e-05
6.80156e-07
-1.50749e-05
5.62016e-07
-1.54166e-05
4.68522e-07
-1.57036e-05
3.92885e-07
-1.59452e-05
3.30412e-07
-1.61484e-05
2.77782e-07
-1.63186e-05
2.32588e-07
-1.64599e-05
1.93049e-07
-1.65752e-05
1.57819e-07
-1.66671e-05
1.25862e-07
-1.67372e-05
9.63623e-08
-1.6787e-05
6.86633e-08
-1.68172e-05
4.22248e-08
-1.68286e-05
1.65878e-08
-1.68214e-05
-8.65033e-09
-1.67956e-05
-3.38591e-08
-1.6751e-05
-5.93916e-08
-1.66872e-05
-8.56042e-08
-1.66033e-05
-1.12875e-07
-1.64982e-05
-1.41627e-07
-1.63707e-05
-1.72351e-07
-1.62188e-05
-2.05643e-07
-1.60401e-05
-2.42246e-07
-1.58316e-05
-2.83114e-07
-1.55894e-05
-3.29495e-07
-1.53083e-05
-3.83063e-07
-1.49817e-05
-4.46098e-07
-1.46007e-05
-5.21778e-07
-1.41533e-05
-6.14618e-07
-1.36236e-05
-7.31176e-07
-1.29891e-05
-8.81177e-07
-1.22191e-05
-1.07931e-06
-1.12709e-05
-1.34799e-06
-1.00867e-05
-1.72146e-06
-8.59252e-06
-2.25022e-06
-6.70831e-06
-3.00012e-06
-4.39453e-06
-4.02902e-06
-1.8195e-06
-5.3111e-06
1.23976e-07
-6.43735e-06
-5.32866e-06
1.03262e-06
4.53483e-06
5.47749e-07
7.20902e-06
-9.90424e-07
7.05275e-06
-2.88455e-06
6.03112e-06
-4.74091e-06
4.89647e-06
-6.39907e-06
3.90818e-06
-7.81968e-06
3.11926e-06
-9.01585e-06
2.50842e-06
-1.0018e-05
2.038e-06
-1.08583e-05
1.67333e-06
-1.15653e-05
1.38711e-06
-1.21622e-05
1.15898e-06
-1.26679e-05
9.74153e-07
-1.30968e-05
8.21855e-07
-1.34606e-05
6.94215e-07
-1.37683e-05
5.85414e-07
-1.40268e-05
4.9109e-07
-1.42417e-05
4.07931e-07
-1.44172e-05
3.33378e-07
-1.45568e-05
2.65424e-07
-1.46629e-05
2.02468e-07
-1.47374e-05
1.43209e-07
-1.47818e-05
8.65609e-08
-1.47968e-05
3.15977e-08
-1.47829e-05
-2.2498e-08
-1.47403e-05
-7.64763e-08
-1.46686e-05
-1.31055e-07
-1.45673e-05
-1.86953e-07
-1.44352e-05
-2.44931e-07
-1.4271e-05
-3.05825e-07
-1.40728e-05
-3.70601e-07
-1.3838e-05
-4.40411e-07
-1.35636e-05
-5.1667e-07
-1.32456e-05
-6.0116e-07
-1.28789e-05
-6.96171e-07
-1.24573e-05
-8.0469e-07
-1.19727e-05
-9.30678e-07
-1.1415e-05
-1.07944e-06
-1.07714e-05
-1.25819e-06
-1.00258e-05
-1.47677e-06
-9.15833e-06
-1.74869e-06
-8.14531e-06
-2.09232e-06
-6.96121e-06
-2.53209e-06
-5.58424e-06
-3.09843e-06
-4.01104e-06
-3.82342e-06
-2.28838e-06
-4.72278e-06
-5.73545e-07
-5.74386e-06
7.66071e-07
-6.65071e-06
1.08745e-06
-6.75873e-06
-4.24122e-06
9.06596e-07
3.62824e-06
1.22959e-06
6.88603e-06
6.45623e-07
7.63671e-06
-5.19481e-07
7.19622e-06
-1.9369e-06
6.31389e-06
-3.38849e-06
5.35977e-06
-4.75735e-06
4.48812e-06
-5.99379e-06
3.74487e-06
-7.08533e-06
3.12954e-06
-8.03741e-06
2.62541e-06
-8.86268e-06
2.21237e-06
-9.57564e-06
1.87194e-06
-1.01902e-05
1.58868e-06
-1.07186e-05
1.35026e-06
-1.11713e-05
1.14698e-06
-1.15572e-05
9.71262e-07
-1.18833e-05
8.17179e-07
-1.21554e-05
6.8007e-07
-1.23783e-05
5.56234e-07
-1.25556e-05
4.42701e-07
-1.26901e-05
3.37056e-07
-1.27842e-05
2.37304e-07
-1.28394e-05
1.41765e-07
-1.28568e-05
4.89889e-08
-1.2837e-05
-4.23104e-08
-1.27802e-05
-1.33314e-07
-1.26861e-05
-2.25149e-07
-1.25541e-05
-3.18941e-07
-1.23832e-05
-4.15865e-07
-1.21718e-05
-5.17198e-07
-1.1918e-05
-6.24391e-07
-1.16193e-05
-7.39142e-07
-1.12724e-05
-8.63497e-07
-1.08736e-05
-9.99974e-07
-1.04181e-05
-1.15172e-06
-9.90005e-06
-1.32272e-06
-9.31266e-06
-1.51806e-06
-8.64784e-06
-1.74426e-06
-7.89638e-06
-2.00966e-06
-7.04832e-06
-2.32483e-06
-6.0941e-06
-2.70291e-06
-5.02699e-06
-3.15943e-06
-3.84821e-06
-3.71087e-06
-2.57652e-06
-4.37013e-06
-1.26493e-06
-5.13501e-06
-2.57832e-08
-5.96192e-06
9.42696e-07
-6.71234e-06
1.34904e-06
-7.05706e-06
9.16829e-07
-6.32651e-06
-3.32439e-06
6.72126e-07
2.95611e-06
1.24494e-06
6.31322e-06
1.22624e-06
7.65541e-06
6.56685e-07
7.76577e-06
-2.76363e-07
7.24693e-06
-1.39067e-06
6.47408e-06
-2.554e-06
5.65145e-06
-3.68513e-06
4.876e-06
-4.74069e-06
4.1851e-06
-5.70146e-06
3.58618e-06
-6.56228e-06
3.07319e-06
-7.32543e-06
2.63509e-06
-7.99673e-06
2.25998e-06
-8.58326e-06
1.93679e-06
-9.09219e-06
1.65592e-06
-9.5302e-06
1.40928e-06
-9.90322e-06
1.1902e-06
-1.02163e-05
9.9318e-07
-1.04738e-05
8.13717e-07
-1.06792e-05
6.48076e-07
-1.08353e-05
4.93155e-07
-1.09443e-05
3.46341e-07
-1.1008e-05
2.054e-07
-1.10274e-05
6.83842e-08
-1.10032e-05
-6.64451e-08
-1.09358e-05
-2.00689e-07
-1.08251e-05
-3.35871e-07
-1.06706e-05
-4.73501e-07
-1.04713e-05
-6.15134e-07
-1.02261e-05
-7.62437e-07
-9.93318e-06
-9.17261e-07
-9.59059e-06
-1.08173e-06
-9.19576e-06
-1.25833e-06
-8.74568e-06
-1.45005e-06
-8.2369e-06
-1.66049e-06
-7.66559e-06
-1.89404e-06
-7.02762e-06
-2.15603e-06
-6.31897e-06
-2.45292e-06
-5.53629e-06
-2.79234e-06
-4.67813e-06
-3.18299e-06
-3.74699e-06
-3.63406e-06
-2.75276e-06
-4.15365e-06
-1.71841e-06
-4.74522e-06
-6.88206e-07
-5.40033e-06
2.61477e-07
-6.08469e-06
1.01263e-06
-6.71307e-06
1.40877e-06
-7.10849e-06
1.29742e-06
-6.94571e-06
6.66534e-07
-5.69563e-06
-2.65786e-06
4.80868e-07
2.47524e-06
1.07777e-06
5.71632e-06
1.34463e-06
7.38854e-06
1.18087e-06
7.92953e-06
6.5399e-07
7.77382e-06
-1.17569e-07
7.24563e-06
-1.02192e-06
6.55581e-06
-1.97389e-06
5.82797e-06
-2.91602e-06
5.12723e-06
-3.81317e-06
4.48334e-06
-4.64599e-06
3.906e-06
-5.40536e-06
3.39446e-06
-6.08849e-06
2.94311e-06
-6.6962e-06
2.5445e-06
-7.23118e-06
2.1909e-06
-7.69699e-06
1.87509e-06
-8.09738e-06
1.59058e-06
-8.43596e-06
1.33176e-06
-8.71602e-06
1.09377e-06
-8.94042e-06
8.72473e-07
-9.11157e-06
6.64309e-07
-9.23145e-06
4.6622e-07
-9.30159e-06
2.75544e-07
-9.32314e-06
8.99296e-08
-9.29684e-06
-9.27408e-08
-9.22311e-06
-2.7442e-07
-9.10202e-06
-4.56961e-07
-8.93334e-06
-6.42184e-07
-8.71654e-06
-8.31935e-07
-8.45082e-06
-1.02816e-06
-8.13513e-06
-1.23295e-06
-7.76819e-06
-1.44867e-06
-7.34853e-06
-1.67799e-06
-6.87461e-06
-1.92398e-06
-6.3449e-06
-2.19021e-06
-5.75813e-06
-2.48081e-06
-5.11367e-06
-2.80049e-06
-4.41212e-06
-3.15447e-06
-3.65628e-06
-3.54818e-06
-2.85261e-06
-3.98666e-06
-2.0135e-06
-4.47317e-06
-1.16044e-06
-5.00671e-06
-3.28228e-07
-5.57743e-06
4.30205e-07
-6.15876e-06
1.04027e-06
-6.69476e-06
1.40822e-06
-7.08102e-06
1.43973e-06
-7.14e-06
1.09057e-06
-6.59654e-06
4.6985e-07
-5.07491e-06
-2.18801e-06
3.48599e-07
2.12664e-06
8.92748e-07
5.17218e-06
1.28101e-06
7.00028e-06
1.36582e-06
7.84473e-06
1.13934e-06
8.0003e-06
6.61427e-07
7.72355e-06
1.11227e-08
7.20611e-06
-7.38296e-07
6.57739e-06
-1.52895e-06
5.91788e-06
-2.31907e-06
5.27346e-06
-3.08069e-06
4.66762e-06
-3.79631e-06
4.11009e-06
-4.45585e-06
3.60265e-06
-5.05419e-06
3.14284e-06
-5.58943e-06
2.72614e-06
-6.0616e-06
2.34725e-06
-6.47183e-06
2.00081e-06
-6.82179e-06
1.68173e-06
-7.1134e-06
1.38537e-06
-7.3485e-06
1.10758e-06
-7.52883e-06
8.4464e-07
-7.6559e-06
5.93293e-07
-7.73098e-06
3.50624e-07
-7.75508e-06
1.14022e-07
-7.72893e-06
-1.18885e-07
-7.65306e-06
-3.50291e-07
-7.52775e-06
-5.82273e-07
-7.35309e-06
-8.16846e-07
-7.129e-06
-1.05602e-06
-6.85529e-06
-1.30186e-06
-6.53169e-06
-1.55655e-06
-6.15793e-06
-1.82243e-06
-5.73387e-06
-2.10206e-06
-5.2596e-06
-2.39824e-06
-4.73576e-06
-2.71405e-06
-4.16377e-06
-3.05279e-06
-3.54643e-06
-3.41784e-06
-2.88854e-06
-3.81236e-06
-2.19798e-06
-4.23873e-06
-1.4871e-06
-4.69754e-06
-7.74502e-07
-5.18577e-06
-8.72973e-08
-5.69392e-06
5.36697e-07
-6.20142e-06
1.04765e-06
-6.66971e-06
1.3854e-06
-7.03251e-06
1.48812e-06
-7.18374e-06
1.31393e-06
-6.96581e-06
8.82128e-07
-6.16474e-06
3.35849e-07
-4.52863e-06
-1.85216e-06
2.6131e-07
1.86533e-06
7.35038e-07
4.69845e-06
1.15853e-06
6.57678e-06
1.38343e-06
7.61983e-06
1.36314e-06
8.02058e-06
1.115e-06
7.9717e-06
6.86378e-07
7.63473e-06
1.32218e-07
7.13155e-06
-4.96924e-07
6.54702e-06
-1.1598e-06
5.93634e-06
-1.82519e-06
5.33301e-06
-2.47075e-06
4.75565e-06
-3.08131e-06
4.21321e-06
-3.64704e-06
3.70857e-06
-4.16196e-06
3.24106e-06
-4.62278e-06
2.80807e-06
-5.02798e-06
2.406e-06
-5.37716e-06
2.03091e-06
-5.67063e-06
1.67885e-06
-5.90909e-06
1.34603e-06
-6.09338e-06
1.02894e-06
-6.22444e-06
7.24345e-07
-6.30311e-06
4.29302e-07
-6.33021e-06
1.41115e-07
-6.3064e-06
-1.42688e-07
-6.23229e-06
-4.24406e-07
-6.10836e-06
-7.06204e-07
-5.93505e-06
-9.90157e-07
-5.71277e-06
-1.2783e-06
-5.44199e-06
-1.57265e-06
-5.12328e-06
-1.87527e-06
-4.75744e-06
-2.18827e-06
-4.34566e-06
-2.51383e-06
-3.8897e-06
-2.85419e-06
-3.3922e-06
-3.21156e-06
-2.857e-06
-3.58799e-06
-2.28974e-06
-3.9851e-06
-1.69847e-06
-4.40362e-06
-1.09456e-06
-4.84264e-06
-4.93753e-07
-5.29835e-06
8.26662e-08
-5.76219e-06
6.06788e-07
-6.21804e-06
1.04364e-06
-6.63827e-06
1.35233e-06
-6.9784e-06
1.49049e-06
-7.17067e-06
1.42445e-06
-7.1177e-06
1.14781e-06
-6.68917e-06
7.09733e-07
-5.72666e-06
2.47688e-07
-4.06659e-06
-1.60447e-06
2.03071e-07
1.66226e-06
6.10084e-07
4.29143e-06
1.02747e-06
6.1594e-06
1.32397e-06
7.32333e-06
1.43767e-06
7.90688e-06
1.35923e-06
8.05013e-06
1.11091e-06
7.88305e-06
7.29402e-07
7.51306e-06
2.5443e-07
7.02199e-06
-2.77537e-07
6.46831e-06
-8.36004e-07
5.89147e-06
-1.39699e-06
5.31664e-06
-1.9425e-06
4.75872e-06
-2.45952e-06
4.22559e-06
-2.939e-06
3.72054e-06
-3.37485e-06
3.24392e-06
-3.76315e-06
2.79431e-06
-4.10158e-06
2.36934e-06
-4.38885e-06
1.96612e-06
-4.62442e-06
1.5816e-06
-4.80822e-06
1.21274e-06
-4.94047e-06
8.56597e-07
-5.02158e-06
5.10414e-07
-5.05206e-06
1.71597e-07
-5.03248e-06
-1.62264e-07
-4.96347e-06
-4.93419e-07
-4.8457e-06
-8.23976e-07
-4.67993e-06
-1.15593e-06
-4.46705e-06
-1.49118e-06
-4.20814e-06
-1.83155e-06
-3.9046e-06
-2.17881e-06
-3.55823e-06
-2.53464e-06
-3.17143e-06
-2.90064e-06
-2.74739e-06
-3.27823e-06
-2.29043e-06
-3.66852e-06
-1.8063e-06
-4.07212e-06
-1.30268e-06
-4.48872e-06
-7.89702e-07
-4.9166e-06
-2.8061e-07
-5.35174e-06
2.07625e-07
-5.78659e-06
6.53768e-07
-6.20833e-06
1.03221e-06
-6.59648e-06
1.31375e-06
-6.91981e-06
1.46805e-06
-7.13271e-06
1.46891e-06
-7.17153e-06
1.30342e-06
-6.95221e-06
9.85847e-07
-6.3716e-06
5.74929e-07
-5.31574e-06
1.88748e-07
-3.6804e-06
-1.41572e-06
1.62911e-07
1.49935e-06
5.12745e-07
3.9416e-06
9.06094e-07
5.76605e-06
1.23303e-06
6.9964e-06
1.42931e-06
7.71059e-06
1.47095e-06
8.00849e-06
1.36252e-06
7.99148e-06
1.12527e-06
7.75031e-06
7.87797e-07
7.35946e-06
3.79825e-07
6.87628e-06
-7.13584e-08
6.34266e-06
-5.42489e-07
5.78777e-06
-1.01473e-06
5.23096e-06
-1.4734e-06
4.68426e-06
-1.90742e-06
4.15456e-06
-2.30866e-06
3.64515e-06
-2.6713e-06
3.15695e-06
-2.99131e-06
2.68935e-06
-3.266e-06
2.2408e-06
-3.49364e-06
1.80925e-06
-3.67326e-06
1.39236e-06
-3.80438e-06
9.87716e-07
-3.88691e-06
5.92939e-07
-3.92103e-06
2.05719e-07
-3.90716e-06
-1.76131e-07
-3.84592e-06
-5.54662e-07
-3.73811e-06
-9.31785e-07
-3.58477e-06
-1.30927e-06
-3.38719e-06
-1.68876e-06
-3.14701e-06
-2.07173e-06
-2.86632e-06
-2.4595e-06
-2.54776e-06
-2.8532e-06
-2.19473e-06
-3.25368e-06
-1.81154e-06
-3.66141e-06
-1.40375e-06
-4.07632e-06
-9.78392e-07
-4.49747e-06
-5.44375e-07
-4.92274e-06
-1.12848e-07
-5.34813e-06
3.02441e-07
-5.76702e-06
6.84887e-07
-6.16903e-06
1.01505e-06
-6.53849e-06
1.27117e-06
-6.8526e-06
1.43066e-06
-7.0793e-06
1.47298e-06
-7.17503e-06
1.38458e-06
-7.08312e-06
1.16619e-06
-6.73382e-06
8.42266e-07
-6.04768e-06
4.70671e-07
-4.94415e-06
1.47982e-07
-3.35772e-06
-1.26774e-06
1.34107e-07
1.36524e-06
4.36467e-07
3.63924e-06
7.9931e-07
5.40321e-06
1.1327e-06
6.66301e-06
1.37638e-06
7.46692e-06
1.49968e-06
7.88518e-06
1.49582e-06
7.99535e-06
1.37427e-06
7.87187e-06
1.15377e-06
7.57996e-06
8.56932e-07
7.17311e-06
5.06647e-07
6.69294e-06
1.23955e-07
6.17046e-06
-2.72939e-07
5.62785e-06
-6.68952e-07
5.08028e-06
-1.052e-06
4.53761e-06
-1.41266e-06
4.00581e-06
-1.74375e-06
3.48804e-06
-2.03993e-06
2.98553e-06
-2.29734e-06
2.49821e-06
-2.51323e-06
2.02515e-06
-2.6858e-06
1.56492e-06
-2.8139e-06
1.11582e-06
-2.89696e-06
6.75992e-07
-2.93481e-06
2.43575e-07
-2.9277e-06
-1.83246e-07
-2.87617e-06
-6.06189e-07
-2.78112e-06
-1.02684e-06
-2.64376e-06
-1.44663e-06
-2.46573e-06
-1.86679e-06
-2.24908e-06
-2.28837e-06
-1.99644e-06
-2.71214e-06
-1.71109e-06
-3.13855e-06
-1.39714e-06
-3.56763e-06
-1.05969e-06
-3.99886e-06
-7.05064e-07
-4.43094e-06
-3.41002e-07
-4.86154e-06
2.30817e-08
-5.28682e-06
3.759e-07
-5.70095e-06
7.04173e-07
-6.0953e-06
9.92682e-07
-6.45754e-06
1.22465e-06
-6.77045e-06
1.38265e-06
-7.0106e-06
1.4503e-06
-7.14695e-06
1.41508e-06
-7.13981e-06
1.27244e-06
-6.94048e-06
1.03116e-06
-6.49254e-06
7.19367e-07
-5.73589e-06
3.89434e-07
-4.61421e-06
1.18693e-07
-3.08697e-06
-1.14905e-06
1.12618e-07
1.25263e-06
3.75717e-07
3.37614e-06
7.06875e-07
5.07205e-06
1.0331e-06
6.33678e-06
1.30057e-06
7.19945e-06
1.47683e-06
7.70892e-06
1.54847e-06
7.92372e-06
1.5166e-06
7.90373e-06
1.39199e-06
7.70457e-06
1.19075e-06
7.37436e-06
9.31037e-07
6.95266e-06
6.30902e-07
6.4706e-06
3.0696e-07
5.95179e-06
-2.62499e-08
5.41349e-06
-3.56481e-07
4.86784e-06
-6.73715e-07
4.32305e-06
-9.69953e-07
3.78428e-06
-1.23896e-06
3.25454e-06
-1.47597e-06
2.73521e-06
-1.67745e-06
2.22663e-06
-1.84087e-06
1.72834e-06
-1.96451e-06
1.23946e-06
-2.04734e-06
7.58818e-07
-2.08887e-06
2.85108e-07
-2.08912e-06
-1.82992e-07
-2.04856e-06
-6.46749e-07
-1.96808e-06
-1.10732e-06
-1.84903e-06
-1.56568e-06
-1.69323e-06
-2.02259e-06
-1.50304e-06
-2.47857e-06
-1.28144e-06
-2.93374e-06
-1.03213e-06
-3.38786e-06
-7.59668e-07
-3.84009e-06
-4.69579e-07
-4.28894e-06
-1.68536e-07
-4.73199e-06
1.35512e-07
-5.16558e-06
4.33216e-07
-5.58452e-06
7.13773e-07
-5.9815e-06
9.64992e-07
-6.34652e-06
1.17356e-06
-6.66611e-06
1.32564e-06
-6.92253e-06
1.4079e-06
-7.09286e-06
1.40922e-06
-7.14828e-06
1.32312e-06
-7.05371e-06
1.15094e-06
-6.7683e-06
9.05613e-07
-6.24721e-06
6.15216e-07
-5.44549e-06
3.25145e-07
-4.32414e-06
9.68577e-08
-2.85869e-06
-1.05219e-06
9.5988e-08
1.15664e-06
3.26328e-07
3.1458e-06
6.26861e-07
4.77151e-06
9.38338e-07
6.0253e-06
1.21394e-06
6.92385e-06
1.4221e-06
7.50076e-06
1.54607e-06
7.79975e-06
1.58145e-06
7.86835e-06
1.53297e-06
7.75306e-06
1.41118e-06
7.49614e-06
1.22982e-06
7.13402e-06
1.00369e-06
6.69673e-06
7.47295e-07
6.20818e-06
4.74001e-07
5.68678e-06
1.95583e-07
5.14626e-06
-7.79173e-08
4.59655e-06
-3.38169e-07
4.04453e-06
-5.78422e-07
3.49479e-06
-7.93333e-07
2.95013e-06
-9.78779e-07
2.41207e-06
-1.13168e-06
1.88124e-06
-1.24984e-06
1.35762e-06
-1.33182e-06
8.408e-07
-1.37684e-06
3.30128e-07
-1.3847e-06
-1.75135e-07
-1.35573e-06
-6.75719e-07
-1.29078e-06
-1.17226e-06
-1.19124e-06
-1.66522e-06
-1.059e-06
-2.15483e-06
-8.96596e-07
-2.64097e-06
-7.0718e-07
-3.12316e-06
-4.94659e-07
-3.60038e-06
-2.63766e-07
-4.07099e-06
-2.01614e-08
-4.53255e-06
2.29479e-07
-4.98163e-06
4.77391e-07
-5.4135e-06
7.14701e-07
-5.82183e-06
9.31483e-07
-6.19828e-06
1.11696e-06
-6.53199e-06
1.25988e-06
-6.80903e-06
1.34922e-06
-7.01187e-06
1.37522e-06
-7.11886e-06
1.33089e-06
-7.10394e-06
1.21397e-06
-6.9368e-06
1.02936e-06
-6.58369e-06
7.91577e-07
-6.00943e-06
5.26748e-07
-5.18066e-06
2.73292e-07
-4.07069e-06
8.00203e-08
-2.66542e-06
-9.72168e-07
8.26882e-08
1.07395e-06
2.85282e-07
2.94321e-06
5.5703e-07
4.49977e-06
8.49652e-07
5.73268e-06
1.12298e-06
6.65052e-06
1.34773e-06
7.27601e-06
1.50594e-06
7.64154e-06
1.58986e-06
7.78444e-06
1.59983e-06
7.74308e-06
1.54204e-06
7.55393e-06
1.4263e-06
7.24976e-06
1.26429e-06
6.85874e-06
1.06822e-06
6.40426e-06
8.49914e-07
5.90509e-06
6.20248e-07
5.37593e-06
3.88852e-07
4.82794e-06
1.63995e-07
4.26939e-06
-4.74064e-08
3.70619e-06
-2.39706e-07
3.14243e-06
-4.08413e-07
2.58078e-06
-5.50062e-07
2.02289e-06
-6.62095e-07
1.46966e-06
-7.42749e-07
9.21454e-07
-7.90972e-07
3.7835e-07
-8.06349e-07
-1.59757e-07
-7.89063e-07
-6.93005e-07
-7.39868e-07
-1.22145e-06
-6.60089e-07
-1.745e-06
-5.51634e-07
-2.26328e-06
-4.17029e-07
-2.77558e-06
-2.59467e-07
-3.28072e-06
-8.28606e-08
-3.77698e-06
1.08094e-07
-4.26194e-06
3.07862e-07
-4.73232e-06
5.10028e-07
-5.18379e-06
7.0729e-07
-5.61076e-06
8.91509e-07
-6.00605e-06
1.05385e-06
-6.36062e-06
1.18504e-06
-6.66319e-06
1.27585e-06
-6.89984e-06
1.31772e-06
-7.05375e-06
1.3038e-06
-7.10493e-06
1.23012e-06
-7.03027e-06
1.09726e-06
-6.80393e-06
9.11955e-07
-6.39839e-06
6.88727e-07
-5.7862e-06
4.50927e-07
-4.94286e-06
2.30612e-07
-3.85037e-06
6.6635e-08
-2.50144e-06
-9.05533e-07
7.17331e-08
1.00222e-06
2.50413e-07
2.76453e-06
4.95338e-07
4.25484e-06
7.66967e-07
5.46105e-06
1.0311e-06
6.38638e-06
1.26131e-06
7.04581e-06
1.43977e-06
7.46308e-06
1.55688e-06
7.66732e-06
1.61007e-06
7.6899e-06
1.60214e-06
7.56186e-06
1.53966e-06
7.31223e-06
1.43151e-06
6.9669e-06
1.28762e-06
6.54815e-06
1.11814e-06
6.07457e-06
9.32785e-07
5.56128e-06
7.40485e-07
5.02024e-06
5.49138e-07
4.46074e-06
3.65545e-07
3.88978e-06
1.95413e-07
3.31256e-06
4.33996e-08
2.73279e-06
-8.68063e-08
2.1531e-06
-1.92399e-07
1.57525e-06
-2.71371e-07
1.00043e-06
-3.22444e-07
4.29423e-07
-3.45006e-07
-1.37195e-07
-3.39072e-07
-6.98939e-07
-3.05257e-07
-1.25527e-06
-2.44769e-07
-1.80549e-06
-1.59417e-07
-2.34863e-06
-5.16308e-08
-2.88336e-06
7.55121e-08
-3.40786e-06
2.18248e-07
-3.91972e-06
3.72096e-07
-4.41579e-06
5.31835e-07
-4.89206e-06
6.91504e-07
-5.34346e-06
8.44442e-07
-5.7637e-06
9.83386e-07
-6.145e-06
1.10066e-06
-6.4779e-06
1.18847e-06
-6.751e-06
1.23938e-06
-6.95075e-06
1.24692e-06
-7.06129e-06
1.20645e-06
-7.06445e-06
1.11616e-06
-6.93998e-06
9.78294e-07
-6.66607e-06
8.00292e-07
-6.22038e-06
5.95799e-07
-5.58171e-06
3.85115e-07
-4.73218e-06
1.94744e-07
-3.66e-06
5.56938e-08
-2.36239e-06
-8.49839e-07
6.24661e-08
9.39752e-07
2.20154e-07
2.60684e-06
4.40066e-07
4.03493e-06
6.89663e-07
5.21146e-06
9.39956e-07
6.13608e-06
1.16751e-06
6.81825e-06
1.35543e-06
7.27516e-06
1.49335e-06
7.5294e-06
1.57682e-06
7.60642e-06
1.60623e-06
7.53246e-06
1.58555e-06
7.3329e-06
1.52124e-06
7.03121e-06
1.42114e-06
6.64824e-06
1.29373e-06
6.20198e-06
1.14746e-06
5.70755e-06
9.9035e-07
5.17735e-06
8.29731e-07
4.62136e-06
6.72075e-07
4.04744e-06
5.22947e-07
3.46169e-06
3.86997e-07
2.86874e-06
2.67995e-07
2.2721e-06
1.68883e-07
1.67436e-06
9.18324e-08
1.07748e-06
3.82983e-08
4.82957e-07
9.0697e-09
-1.07967e-07
4.30506e-09
-6.94174e-07
2.35572e-08
-1.27452e-06
6.57857e-08
-1.84772e-06
1.29356e-07
-2.4122e-06
2.12032e-07
-2.96604e-06
3.10958e-07
-3.50679e-06
4.22647e-07
-4.03141e-06
5.42968e-07
-4.53611e-06
6.67147e-07
-5.01624e-06
7.89804e-07
-5.46612e-06
9.05017e-07
-5.87891e-06
1.00645e-06
-6.24643e-06
1.08757e-06
-6.55902e-06
1.14195e-06
-6.80537e-06
1.16366e-06
-6.97247e-06
1.14792e-06
-7.04555e-06
1.09171e-06
-7.00824e-06
9.94634e-07
-6.84291e-06
8.59791e-07
-6.53122e-06
6.94572e-07
-6.05516e-06
5.11259e-07
-5.39839e-06
3.27142e-07
-4.54806e-06
1.6397e-07
-3.49683e-06
4.65164e-08
-2.24494e-06
-8.03323e-07
5.44366e-08
8.85315e-07
1.93366e-07
2.46791e-06
3.89829e-07
3.83847e-06
6.16953e-07
4.98433e-06
8.50244e-07
5.90279e-06
1.06921e-06
6.59929e-06
1.25827e-06
7.0861e-06
1.40705e-06
7.38062e-06
1.51005e-06
7.50343e-06
1.56593e-06
7.47657e-06
1.57673e-06
7.3221e-06
1.54689e-06
7.06106e-06
1.48241e-06
6.71272e-06
1.3902e-06
6.2942e-06
1.27742e-06
5.82033e-06
1.15111e-06
5.30366e-06
1.01789e-06
4.75458e-06
8.83754e-07
4.18158e-06
7.53967e-07
3.59147e-06
6.33032e-07
2.98968e-06
5.24676e-07
2.38046e-06
4.31876e-07
1.76716e-06
3.56891e-07
1.15246e-06
3.01304e-07
5.38545e-07
2.66052e-07
-7.27146e-08
2.51464e-07
-6.79586e-07
2.57279e-07
-1.28034e-06
2.82664e-07
-1.8731e-06
3.26214e-07
-2.45575e-06
3.85955e-07
-3.02578e-06
4.59344e-07
-3.58018e-06
5.43258e-07
-4.11532e-06
6.34011e-07
-4.62686e-06
7.27367e-07
-5.10959e-06
8.18596e-07
-5.55735e-06
9.02557e-07
-5.96287e-06
9.73838e-07
-6.31771e-06
1.02697e-06
-6.61215e-06
1.05669e-06
-6.8351e-06
1.05839e-06
-6.97416e-06
1.02852e-06
-7.01568e-06
9.65221e-07
-6.94494e-06
8.68921e-07
-6.74661e-06
7.43002e-07
-6.4053e-06
5.94331e-07
-5.90649e-06
4.33596e-07
-5.23766e-06
2.75261e-07
-4.38973e-06
1.37019e-07
-3.35859e-06
3.86289e-08
-2.14655e-06
-7.64694e-07
4.73264e-08
8.37989e-07
1.69207e-07
2.34603e-06
3.43525e-07
3.66415e-06
5.48054e-07
4.7798e-06
7.62173e-07
5.68867e-06
9.68148e-07
6.39331e-06
1.15196e-06
6.90229e-06
1.30366e-06
7.22892e-06
1.41728e-06
7.38981e-06
1.49041e-06
7.40344e-06
1.52361e-06
7.2889e-06
1.51973e-06
7.06494e-06
1.48323e-06
6.74922e-06
1.41957e-06
6.35786e-06
1.33469e-06
5.90521e-06
1.23463e-06
5.40371e-06
1.12523e-06
4.86398e-06
1.01189e-06
4.29491e-06
8.99489e-07
3.70388e-06
7.92256e-07
3.09691e-06
6.93777e-07
2.47893e-06
6.06977e-07
1.85396e-06
5.34134e-07
1.2253e-06
4.76905e-07
5.95774e-07
4.36349e-07
-3.21588e-08
4.12953e-07
-6.56191e-07
4.06652e-07
-1.27404e-06
4.1684e-07
-1.88329e-06
4.42384e-07
-2.4813e-06
4.81625e-07
-3.06502e-06
5.32385e-07
-3.63094e-06
5.91975e-07
-4.17491e-06
6.57212e-07
-4.6921e-06
7.2445e-07
-5.17683e-06
7.8964e-07
-5.62254e-06
8.48421e-07
-6.02165e-06
8.9626e-07
-6.36555e-06
9.28643e-07
-6.64453e-06
9.4134e-07
-6.8478e-06
9.30736e-07
-6.96356e-06
8.94231e-07
-6.97917e-06
8.30702e-07
-6.88141e-06
7.40986e-07
-6.65689e-06
6.28345e-07
-6.29266e-06
4.98828e-07
-5.77698e-06
3.61453e-07
-5.10028e-06
2.28085e-07
-4.25636e-06
1.12944e-07
-3.24345e-06
3.16926e-08
-2.06529e-06
-7.33001e-07
4.09059e-08
7.97083e-07
1.47052e-07
2.23988e-06
3.00285e-07
3.51092e-06
4.82255e-07
4.59783e-06
6.75692e-07
5.49524e-06
8.65413e-07
6.20359e-06
1.03903e-06
6.72867e-06
1.18733e-06
7.08062e-06
1.3043e-06
7.27284e-06
1.38691e-06
7.32083e-06
1.4347e-06
7.24111e-06
1.44928e-06
7.05036e-06
1.43381e-06
6.76468e-06
1.39251e-06
6.39916e-06
1.3302e-06
5.96752e-06
1.25194e-06
5.48197e-06
1.16276e-06
4.95316e-06
1.06742e-06
4.39024e-06
9.70324e-07
3.80098e-06
8.75355e-07
3.19188e-06
7.85877e-07
2.56841e-06
7.04686e-07
1.93515e-06
6.34019e-07
1.29597e-06
5.75562e-07
6.54232e-07
5.30461e-07
1.29421e-08
4.99346e-07
-6.25076e-07
4.82343e-07
-1.25703e-06
4.79089e-07
-1.88004e-06
4.88743e-07
-2.49095e-06
5.09995e-07
-3.08627e-06
5.41071e-07
-3.66201e-06
5.79754e-07
-4.2136e-06
6.23398e-07
-4.73574e-06
6.68971e-07
-5.2224e-06
7.13109e-07
-5.66668e-06
7.52208e-07
-6.06075e-06
7.82546e-07
-6.39589e-06
8.0046e-07
-6.66244e-06
8.02568e-07
-6.84991e-06
7.86047e-07
-6.94704e-06
7.48961e-07
-6.94208e-06
6.90616e-07
-6.82307e-06
6.11935e-07
-6.57821e-06
5.15791e-07
-6.19652e-06
4.07249e-07
-5.66844e-06
2.93659e-07
-4.98669e-06
1.84512e-07
-4.14721e-06
9.10309e-08
-3.14997e-06
2.54597e-08
-1.99972e-06
-7.07542e-07
3.50058e-08
7.62077e-07
1.26425e-07
2.14846e-06
2.59423e-07
3.37792e-06
4.18939e-07
4.43832e-06
5.90632e-07
5.32354e-06
7.6166e-07
6.03256e-06
9.21277e-07
6.56905e-06
1.06118e-06
6.94071e-06
1.17562e-06
7.15841e-06
1.26127e-06
7.23518e-06
1.31703e-06
7.18536e-06
1.34357e-06
7.02381e-06
1.34302e-06
6.76523e-06
1.31853e-06
6.42365e-06
1.2739e-06
6.01216e-06
1.21327e-06
5.5426e-06
1.14087e-06
5.02556e-06
1.06082e-06
4.47029e-06
9.76982e-07
3.88482e-06
8.9284e-07
3.27602e-06
8.11469e-07
2.64978e-06
7.35482e-07
2.01114e-06
6.67019e-07
1.36443e-06
6.07749e-07
7.13502e-07
5.58875e-07
6.18158e-08
5.21148e-07
-5.87348e-07
4.94876e-07
-1.23076e-06
4.79941e-07
-1.8651e-06
4.75803e-07
-2.48681e-06
4.81515e-07
-3.09199e-06
4.95734e-07
-3.67623e-06
5.16729e-07
-4.23459e-06
5.42412e-07
-4.76143e-06
5.70365e-07
-5.25036e-06
5.97899e-07
-5.69421e-06
6.22125e-07
-6.08498e-06
6.40067e-07
-6.41383e-06
6.48806e-07
-6.67118e-06
6.45659e-07
-6.84676e-06
6.2841e-07
-6.92979e-06
5.95562e-07
-6.90924e-06
5.4662e-07
-6.77412e-06
4.82365e-07
-6.51396e-06
4.051e-07
-6.11925e-06
3.18814e-07
-5.58215e-06
2.2923e-07
-4.89711e-06
1.4367e-07
-4.06165e-06
7.07311e-08
-3.07703e-06
1.97459e-08
-1.94874e-06
-6.87796e-07
2.94986e-08
7.32578e-07
1.06961e-07
2.071e-06
2.20396e-07
3.26448e-06
3.57585e-07
4.30113e-06
5.06776e-07
5.17435e-06
6.57285e-07
5.88205e-06
7.99971e-07
6.42636e-06
9.27555e-07
6.81313e-06
1.03475e-06
7.05122e-06
1.11822e-06
7.1517e-06
1.17645e-06
7.12713e-06
1.20948e-06
6.99078e-06
1.21861e-06
6.7561e-06
1.20608e-06
6.43618e-06
1.1748e-06
6.04344e-06
1.12806e-06
5.58934e-06
1.06935e-06
5.08428e-06
1.0021e-06
4.53754e-06
9.29622e-07
3.95729e-06
8.54972e-07
3.35067e-06
7.80883e-07
2.72387e-06
7.09736e-07
2.08229e-06
6.43529e-07
1.43064e-06
5.83875e-07
7.73156e-07
5.32e-07
1.13691e-07
4.8875e-07
-5.44098e-07
4.54602e-07
-1.19661e-06
4.29673e-07
-1.84017e-06
4.13727e-07
-2.47087e-06
4.06185e-07
-3.08444e-06
4.06137e-07
-3.67618e-06
4.1235e-07
-4.2408e-06
4.23292e-07
-4.77237e-06
4.37155e-07
-5.26422e-06
4.51899e-07
-5.70895e-06
4.65315e-07
-6.09839e-06
4.75104e-07
-6.42362e-06
4.78997e-07
-6.67507e-06
4.74891e-07
-6.84265e-06
4.61024e-07
-6.91592e-06
4.36175e-07
-6.88439e-06
3.99869e-07
-6.73782e-06
3.52587e-07
-6.46668e-06
2.95948e-07
-6.06261e-06
2.32819e-07
-5.51902e-06
1.6735e-07
-4.83164e-06
1.04866e-07
-3.99917e-06
5.16214e-08
-3.02378e-06
1.44114e-08
-1.91153e-06
-6.73385e-07
2.4286e-08
7.08292e-07
8.83735e-08
2.00691e-06
1.82765e-07
3.17009e-06
2.97748e-07
4.18614e-06
4.23898e-07
5.0482e-06
5.52525e-07
5.75343e-06
6.76053e-07
6.30284e-06
7.8828e-07
6.7009e-06
8.84524e-07
6.95497e-06
9.61634e-07
7.07459e-06
1.01791e-06
7.07085e-06
1.05294e-06
6.95576e-06
1.06738e-06
6.74166e-06
1.06274e-06
6.44083e-06
1.04114e-06
6.06504e-06
1.00511e-06
5.62537e-06
9.57389e-07
5.132e-06
9.00785e-07
4.59414e-06
8.38038e-07
4.02004e-06
7.71734e-07
3.41698e-06
7.04241e-07
2.79136e-06
6.37666e-07
2.14886e-06
5.73826e-07
1.49448e-06
5.14241e-07
8.32741e-07
4.60127e-07
1.67805e-07
4.12403e-07
-4.96374e-07
3.71691e-07
-1.1559e-06
3.3833e-07
-1.80681e-06
3.12378e-07
-2.44492e-06
2.93621e-07
-3.06569e-06
2.81578e-07
-3.66414e-06
2.75514e-07
-4.23474e-06
2.74444e-07
-4.7713e-06
2.77157e-07
-5.26693e-06
2.82243e-07
-5.71404e-06
2.88128e-07
-6.10428e-06
2.93142e-07
-6.42863e-06
2.95587e-07
-6.67752e-06
2.93846e-07
-6.84091e-06
2.86501e-07
-6.90858e-06
2.72482e-07
-6.87037e-06
2.51212e-07
-6.71655e-06
2.22766e-07
-6.43823e-06
1.88004e-07
-6.02785e-06
1.48654e-07
-5.47967e-06
1.07347e-07
-4.79033e-06
6.7543e-08
-3.95936e-06
3.33693e-08
-2.98961e-06
9.34787e-09
-1.88751e-06
-6.64037e-07
1.92899e-08
6.89002e-07
7.04325e-08
1.95577e-06
1.46169e-07
3.09435e-06
2.39047e-07
4.09327e-06
3.4177e-07
4.94548e-06
4.47516e-07
5.64768e-06
5.5022e-07
6.20013e-06
6.44794e-07
6.60633e-06
7.27256e-07
6.87251e-06
7.9477e-07
7.00708e-06
8.45616e-07
7.02001e-06
8.79091e-07
6.92228e-06
8.95374e-07
6.72538e-06
8.95356e-07
6.44084e-06
8.80477e-07
6.07992e-06
8.52563e-07
5.65328e-06
8.13674e-07
5.17089e-06
7.65981e-07
4.64184e-06
7.11663e-07
4.07436e-06
6.52825e-07
3.47581e-06
5.9144e-07
2.85275e-06
5.29311e-07
2.21099e-06
4.68039e-07
1.55575e-06
4.09019e-07
8.91762e-07
3.53424e-07
2.23399e-07
3.02217e-07
-4.45167e-07
2.56145e-07
-1.10983e-06
2.15749e-07
-1.76642e-06
1.81365e-07
-2.41053e-06
1.53133e-07
-3.03746e-06
1.30995e-07
-3.642e-06
1.14699e-07
-4.21844e-06
1.03802e-07
-4.7604e-06
9.7675e-08
-5.26081e-06
9.55134e-08
-5.71188e-06
9.63557e-08
-6.10512e-06
9.91124e-08
-6.43139e-06
1.02609e-07
-6.68102e-06
1.05645e-07
-6.84395e-06
1.07072e-07
-6.91001e-06
1.05886e-07
-6.86918e-06
1.01331e-07
-6.71199e-06
9.3006e-08
-6.42991e-06
8.09677e-08
-6.01581e-06
6.58032e-08
-5.46451e-06
4.86658e-08
-4.7732e-06
3.12521e-08
-3.94195e-06
1.57091e-08
-2.97407e-06
4.47008e-09
-1.87627e-06
-6.59567e-07
1.4446e-08
6.74556e-07
5.29456e-08
1.91727e-06
1.103e-07
3.037e-06
1.81146e-07
4.02242e-06
2.60169e-07
4.86646e-06
3.42317e-07
5.56553e-06
4.23001e-07
6.11945e-06
4.98257e-07
6.53107e-06
5.64864e-07
6.8059e-06
6.204e-07
6.95154e-06
6.63241e-07
6.97716e-06
6.9252e-07
6.893e-06
7.08047e-07
6.70985e-06
7.10202e-07
6.43869e-06
6.99823e-07
6.09029e-06
6.78095e-07
5.67501e-06
6.46434e-07
5.20255e-06
6.06401e-07
4.68187e-06
5.59612e-07
4.12115e-06
5.07681e-07
3.52775e-06
4.52167e-07
2.90826e-06
3.94539e-07
2.26862e-06
3.36157e-07
1.61413e-06
2.78255e-07
9.49663e-07
2.21939e-07
2.79715e-07
1.68183e-07
-3.91411e-07
1.17834e-07
-1.05948e-06
7.16114e-08
-1.72019e-06
3.01141e-08
-2.36904e-06
-6.18304e-09
-3.00116e-06
-3.69294e-08
-3.61126e-06
-6.19034e-08
-4.19347e-06
-8.10193e-08
-4.74128e-06
-9.43363e-08
-5.24749e-06
-1.02066e-07
-5.70415e-06
-1.04579e-07
-6.10261e-06
-1.02406e-07
-6.43356e-06
-9.62299e-08
-6.68719e-06
-8.68711e-08
-6.85331e-06
-7.52527e-08
-6.92162e-06
-6.23577e-08
-6.88208e-06
-4.91684e-08
-6.72518e-06
-3.65972e-08
-6.44248e-06
-2.54121e-08
-6.027e-06
-1.6168e-08
-5.47375e-06
-9.15524e-09
-4.78021e-06
-4.37842e-09