/*--------------------------------*- C++ -*----------------------------------*\
  =========                 |
  \\      /  F ield         | OpenFOAM: The Open Source CFD Toolbox
   \\    /   O peration     | Website:  https://openfoam.org
    \\  /    A nd           | Version:  7
     \\/     M anipulation  |
\*---------------------------------------------------------------------------*/
FoamFile
{
    version     2.0;
    format      ascii;
    class       surfaceScalarField;
    location    "0.0306";
    object      phi;
}
// * * * * * * * * * * * * * * * * * * * * * * * * * * * * * * * * * * * * * //

dimensions      [0 3 -1 0 0 0 0];

internalField   nonuniform List<scalar> 
4900
(
5.45515e-06
-5.45514e-06
9.95415e-06
-4.49901e-06
1.26949e-05
-2.74077e-06
1.44125e-05
-1.71754e-06
1.55272e-05
-1.11479e-06
1.62783e-05
-7.5107e-07
1.68068e-05
-5.28433e-07
1.71942e-05
-3.87468e-07
1.74881e-05
-2.93854e-07
1.77167e-05
-2.28643e-07
1.7898e-05
-1.81296e-07
1.80437e-05
-1.45736e-07
1.81621e-05
-1.18301e-07
1.82587e-05
-9.66818e-08
1.83381e-05
-7.93526e-08
1.84033e-05
-6.5265e-08
1.8457e-05
-5.36707e-08
1.8501e-05
-4.40176e-08
1.85369e-05
-3.58868e-08
1.85659e-05
-2.89508e-08
1.85888e-05
-2.2947e-08
1.86065e-05
-1.76591e-08
1.86194e-05
-1.29034e-08
1.86279e-05
-8.51971e-09
1.86323e-05
-4.36303e-09
1.86326e-05
-2.9902e-10
1.86288e-05
3.80687e-09
1.86207e-05
8.08472e-09
1.8608e-05
1.2676e-08
1.85903e-05
1.77338e-08
1.85668e-05
2.34323e-08
1.85369e-05
2.99766e-08
1.84992e-05
3.7616e-08
1.84526e-05
4.66632e-08
1.83951e-05
5.75215e-08
1.83243e-05
7.07261e-08
1.82373e-05
8.70081e-08
1.81299e-05
1.07397e-07
1.79965e-05
1.33393e-07
1.78293e-05
1.6727e-07
1.76166e-05
2.12632e-07
1.73412e-05
2.75469e-07
1.69749e-05
3.66248e-07
1.64709e-05
5.04052e-07
1.57466e-05
7.2426e-07
1.46562e-05
1.09043e-06
1.29449e-05
1.7113e-06
1.01623e-05
2.78262e-06
5.55755e-06
4.60471e-06
5.55755e-06
-1.18761e-07
-5.33638e-06
1.83241e-06
-6.45018e-06
4.41286e-06
-5.32121e-06
6.72646e-06
-4.03114e-06
8.60282e-06
-2.99115e-06
1.00805e-05
-2.22871e-06
1.12392e-05
-1.68721e-06
1.21535e-05
-1.30172e-06
1.28819e-05
-1.02229e-06
1.34683e-05
-8.15071e-07
1.39449e-05
-6.57837e-07
1.43351e-05
-5.35995e-07
1.46567e-05
-4.39827e-07
1.49227e-05
-3.6272e-07
1.51434e-05
-3.00059e-07
1.53267e-05
-2.48532e-07
1.54787e-05
-2.05705e-07
1.56044e-05
-1.69736e-07
1.57077e-05
-1.39201e-07
1.57918e-05
-1.12971e-07
1.58589e-05
-9.01243e-08
1.59112e-05
-6.98956e-08
1.59499e-05
-5.16272e-08
1.59761e-05
-3.47395e-08
1.59905e-05
-1.87052e-08
1.59932e-05
-3.0285e-09
1.59842e-05
1.27752e-08
1.59631e-05
2.9195e-08
1.5929e-05
4.67457e-08
1.58808e-05
6.59886e-08
1.58167e-05
8.75582e-08
1.57344e-05
1.12195e-07
1.56313e-05
1.40793e-07
1.55035e-05
1.74457e-07
1.53464e-05
2.14595e-07
1.51541e-05
2.63046e-07
1.49188e-05
3.22269e-07
1.46306e-05
3.95635e-07
1.42761e-05
4.87889e-07
1.38375e-05
6.05875e-07
1.32904e-05
7.5973e-07
1.2601e-05
9.64814e-07
1.17225e-05
1.2448e-06
1.05902e-05
1.6363e-06
9.12009e-06
2.19442e-06
7.21738e-06
2.99313e-06
4.82802e-06
4.10066e-06
2.11984e-06
5.4908e-06
1.06406e-08
6.7139e-06
5.56819e-06
-1.08237e-06
-4.254e-06
-7.55011e-07
-6.77754e-06
5.85929e-07
-6.66215e-06
2.29358e-06
-5.73879e-06
3.9984e-06
-4.69597e-06
5.54163e-06
-3.77193e-06
6.87631e-06
-3.02189e-06
8.0063e-06
-2.43171e-06
8.95448e-06
-1.97047e-06
9.74792e-06
-1.6085e-06
1.0412e-05
-1.32187e-06
1.09684e-05
-1.09242e-06
1.14353e-05
-9.0673e-07
1.18274e-05
-7.54872e-07
1.21569e-05
-6.29481e-07
1.24333e-05
-5.25005e-07
1.26648e-05
-4.37193e-07
1.28578e-05
-3.62731e-07
1.30176e-05
-2.98983e-07
1.31484e-05
-2.43811e-07
1.32538e-05
-1.95442e-07
1.33362e-05
-1.52373e-07
1.33979e-05
-1.13297e-07
1.34402e-05
-7.70467e-08
1.34641e-05
-4.25509e-08
1.34698e-05
-8.7948e-09
1.34574e-05
2.52174e-08
1.34261e-05
6.04932e-08
1.33747e-05
9.80903e-08
1.33016e-05
1.39158e-07
1.32041e-05
1.84983e-07
1.30793e-05
2.37058e-07
1.29229e-05
2.97152e-07
1.273e-05
3.67429e-07
1.2494e-05
4.50587e-07
1.22069e-05
5.50073e-07
1.18588e-05
6.70369e-07
1.14371e-05
8.17412e-07
1.09257e-05
9.99195e-07
1.0305e-05
1.22661e-06
9.55012e-06
1.51462e-06
8.63121e-06
1.88373e-06
7.51451e-06
2.36149e-06
6.16797e-06
2.98284e-06
4.57665e-06
3.78574e-06
2.77801e-06
4.79177e-06
9.30549e-07
5.94812e-06
-5.73822e-07
6.99517e-06
-1.03889e-06
7.17897e-06
4.5293e-06
-9.13602e-07
-3.3404e-06
-1.34444e-06
-6.3467e-06
-9.44136e-07
-7.06246e-06
7.41196e-09
-6.69034e-06
1.21583e-06
-5.9044e-06
2.48236e-06
-5.03846e-06
3.69436e-06
-4.23389e-06
4.7994e-06
-3.53675e-06
5.77997e-06
-2.95104e-06
6.6366e-06
-2.46513e-06
7.37806e-06
-2.06334e-06
8.01621e-06
-1.73057e-06
8.56335e-06
-1.45387e-06
9.03108e-06
-1.22261e-06
9.42981e-06
-1.02821e-06
9.76861e-06
-8.63808e-07
1.00553e-05
-7.23883e-07
1.02965e-05
-6.03938e-07
1.04978e-05
-5.00278e-07
1.06638e-05
-4.09816e-07
1.07983e-05
-3.2993e-07
1.09043e-05
-2.58345e-07
1.0984e-05
-1.93051e-07
1.10392e-05
-1.32227e-07
1.10708e-05
-7.41786e-08
1.10793e-05
-1.72873e-08
1.10645e-05
4.00414e-08
1.10256e-05
9.94246e-08
1.09611e-05
1.62556e-07
1.0869e-05
2.31266e-07
1.07464e-05
3.07584e-07
1.05896e-05
3.9383e-07
1.03941e-05
4.92718e-07
1.0154e-05
6.0749e-07
9.86248e-06
7.42101e-07
9.51111e-06
9.01449e-07
9.08979e-06
1.09168e-06
8.58662e-06
1.32059e-06
7.98772e-06
1.59809e-06
7.27757e-06
1.93676e-06
6.43991e-06
2.35229e-06
5.46017e-06
2.86347e-06
4.33091e-06
3.49076e-06
3.06239e-06
4.25136e-06
1.70194e-06
5.14619e-06
3.64047e-07
6.12966e-06
-7.35752e-07
7.04792e-06
-1.2708e-06
7.53022e-06
-9.17163e-07
6.82533e-06
3.61214e-06
-6.66013e-07
-2.67439e-06
-1.30226e-06
-5.71046e-06
-1.42951e-06
-6.93521e-06
-1.06296e-06
-7.05688e-06
-3.5676e-07
-6.6106e-06
5.31529e-07
-5.92675e-06
1.48399e-06
-5.18635e-06
2.42509e-06
-4.47784e-06
3.31198e-06
-3.83793e-06
4.12365e-06
-3.27681e-06
4.8525e-06
-2.79218e-06
5.49854e-06
-2.37661e-06
6.0659e-06
-2.02123e-06
6.56059e-06
-1.71729e-06
6.98928e-06
-1.4569e-06
7.35862e-06
-1.23315e-06
7.67484e-06
-1.0401e-06
7.94356e-06
-8.72658e-07
8.16974e-06
-7.26463e-07
8.35765e-06
-5.97728e-07
8.51086e-06
-4.83138e-07
8.63226e-06
-3.79746e-07
8.7241e-06
-2.84889e-07
8.78798e-06
-1.96111e-07
8.8249e-06
-1.11097e-07
8.83523e-06
-2.76134e-08
8.81872e-06
5.65525e-08
8.77449e-06
1.43649e-07
8.70103e-06
2.36023e-07
8.5961e-06
3.36191e-07
8.45677e-06
4.46916e-07
8.2793e-06
5.71303e-07
8.0591e-06
7.12911e-07
7.7907e-06
8.75891e-07
7.46765e-06
1.06515e-06
7.08254e-06
1.28656e-06
6.62709e-06
1.54714e-06
6.09236e-06
1.85532e-06
5.4694e-06
2.22105e-06
4.75038e-06
2.65578e-06
3.93084e-06
3.17183e-06
3.01361e-06
3.78069e-06
2.0154e-06
4.48897e-06
9.76904e-07
5.28986e-06
-2.35197e-08
6.14661e-06
-8.56836e-07
6.96298e-06
-1.34364e-06
7.53473e-06
-1.29959e-06
7.48617e-06
-6.86742e-07
6.21248e-06
2.9254e-06
-4.72624e-07
-2.20176e-06
-1.10662e-06
-5.07647e-06
-1.48304e-06
-6.55878e-06
-1.49504e-06
-7.04488e-06
-1.18811e-06
-6.91753e-06
-6.56983e-07
-6.45788e-06
4.99267e-09
-5.84833e-06
7.24304e-07
-5.19715e-06
1.4497e-06
-4.56333e-06
2.14851e-06
-3.97562e-06
2.80173e-06
-3.44539e-06
3.3997e-06
-2.97458e-06
3.9388e-06
-2.56033e-06
4.41914e-06
-2.19764e-06
4.84299e-06
-1.88075e-06
5.21373e-06
-1.60389e-06
5.53522e-06
-1.36159e-06
5.81141e-06
-1.14884e-06
6.04601e-06
-9.61069e-07
6.24243e-06
-7.94143e-07
6.4036e-06
-6.44308e-07
6.53198e-06
-5.08125e-07
6.62949e-06
-3.82403e-07
6.69752e-06
-2.64144e-07
6.73691e-06
-1.50479e-07
6.7479e-06
-3.86069e-08
6.73019e-06
7.42597e-08
6.68288e-06
1.90959e-07
6.60446e-06
3.14441e-07
6.49281e-06
4.47843e-07
6.34517e-06
5.94562e-07
6.15813e-06
7.58344e-07
5.92765e-06
9.43384e-07
5.64912e-06
1.15443e-06
5.31738e-06
1.39689e-06
4.927e-06
1.67694e-06
4.47258e-06
2.00156e-06
3.9494e-06
2.3785e-06
3.35445e-06
2.816e-06
2.68817e-06
3.32206e-06
1.95709e-06
3.9029e-06
1.17784e-06
4.55994e-06
3.82561e-07
5.28425e-06
-3.74522e-07
6.04694e-06
-1.01159e-06
6.78368e-06
-1.42022e-06
7.37161e-06
-1.48562e-06
7.60012e-06
-1.14375e-06
7.1443e-06
-4.9863e-07
5.56736e-06
2.42677e-06
-3.42149e-07
-1.85962e-06
-9.10308e-07
-4.50831e-06
-1.38171e-06
-6.08739e-06
-1.61449e-06
-6.81209e-06
-1.58984e-06
-6.94218e-06
-1.34944e-06
-6.69828e-06
-9.54267e-07
-6.2435e-06
-4.63031e-07
-5.68839e-06
7.63696e-08
-5.10273e-06
6.2847e-07
-4.52772e-06
1.16884e-06
-3.98576e-06
1.68174e-06
-3.48749e-06
2.15787e-06
-3.03646e-06
2.59239e-06
-2.63216e-06
2.98351e-06
-2.27187e-06
3.33137e-06
-1.95174e-06
3.63727e-06
-1.66749e-06
3.90316e-06
-1.41473e-06
4.13125e-06
-1.18916e-06
4.32377e-06
-9.86661e-07
4.48277e-06
-8.03314e-07
4.61005e-06
-6.35405e-07
4.70704e-06
-4.79392e-07
4.77477e-06
-3.31869e-07
4.81381e-06
-1.89521e-07
4.82428e-06
-4.90799e-08
4.80581e-06
9.27294e-08
4.75753e-06
2.39242e-07
4.67806e-06
3.93911e-07
4.56553e-06
5.60368e-07
4.41761e-06
7.42485e-07
4.23151e-06
9.44444e-07
4.0041e-06
1.17079e-06
3.73202e-06
1.42651e-06
3.41192e-06
1.71699e-06
3.04079e-06
2.04806e-06
2.61654e-06
2.42581e-06
2.13879e-06
2.85624e-06
1.61018e-06
3.34462e-06
1.03807e-06
3.89417e-06
4.37016e-07
4.50395e-06
-1.68194e-07
5.16515e-06
-7.3925e-07
5.8553e-06
-1.22185e-06
6.52954e-06
-1.54666e-06
7.10849e-06
-1.63859e-06
7.46354e-06
-1.44178e-06
7.40332e-06
-9.68021e-07
6.67054e-06
-3.68834e-07
4.96818e-06
2.05794e-06
-2.57566e-07
-1.60205e-06
-7.50406e-07
-4.01547e-06
-1.24095e-06
-5.59684e-06
-1.59191e-06
-6.46113e-06
-1.75376e-06
-6.78033e-06
-1.73199e-06
-6.72005e-06
-1.55887e-06
-6.41663e-06
-1.27489e-06
-5.97237e-06
-9.18667e-07
-5.45895e-06
-5.22579e-07
-4.92381e-06
-1.11659e-07
-4.39668e-06
2.95856e-07
-3.895e-06
6.87378e-07
-3.42798e-06
1.05472e-06
-2.9995e-06
1.39294e-06
-2.61009e-06
1.69945e-06
-2.25825e-06
1.97324e-06
-1.94128e-06
2.21433e-06
-1.65583e-06
2.42339e-06
-1.39822e-06
2.60138e-06
-1.16465e-06
2.74939e-06
-9.51321e-07
2.86843e-06
-7.54449e-07
2.95936e-06
-5.70323e-07
3.02278e-06
-3.95286e-07
3.05898e-06
-2.25718e-07
3.0679e-06
-5.80046e-08
3.04914e-06
1.11493e-07
3.0019e-06
2.86483e-07
2.92502e-06
4.70782e-07
2.81703e-06
6.68358e-07
2.67615e-06
8.83368e-07
2.50041e-06
1.12019e-06
2.28777e-06
1.38343e-06
2.03636e-06
1.67791e-06
1.74476e-06
2.00859e-06
1.41244e-06
2.38038e-06
1.04043e-06
2.79782e-06
6.3217e-07
3.26451e-06
1.94696e-07
3.78209e-06
-2.59845e-07
4.34871e-06
-7.12449e-07
4.95656e-06
-1.13548e-06
5.58819e-06
-1.49156e-06
6.21137e-06
-1.73424e-06
6.77222e-06
-1.81283e-06
7.18708e-06
-1.6843e-06
7.33501e-06
-1.33567e-06
7.05469e-06
-8.1783e-07
6.1527e-06
-2.83475e-07
4.43382e-06
1.77446e-06
-2.02159e-07
-1.39989e-06
-6.28106e-07
-3.58952e-06
-1.10455e-06
-5.12039e-06
-1.5125e-06
-6.05318e-06
-1.79193e-06
-6.5009e-06
-1.9269e-06
-6.58508e-06
-1.92829e-06
-6.41524e-06
-1.81995e-06
-6.08071e-06
-1.62954e-06
-5.64935e-06
-1.38338e-06
-5.16997e-06
-1.10397e-06
-4.6761e-06
-8.09315e-07
-4.18965e-06
-5.13114e-07
-3.72418e-06
-2.25321e-07
-3.28729e-06
4.7136e-08
-2.88255e-06
2.9967e-07
-2.51079e-06
5.29438e-07
-2.17105e-06
7.34847e-07
-1.86124e-06
9.15161e-07
-1.57853e-06
1.07019e-06
-1.31968e-06
1.20005e-06
-1.08118e-06
1.305e-06
-8.59401e-07
1.3853e-06
-6.50622e-07
1.44111e-06
-4.51094e-07
1.47243e-06
-2.57035e-07
1.47905e-06
-6.46254e-08
1.46054e-06
1.30002e-07
1.41624e-06
3.30786e-07
1.34527e-06
5.41751e-07
1.2466e-06
7.67029e-07
1.1191e-06
1.01086e-06
9.61704e-07
1.27759e-06
7.73526e-07
1.57161e-06
5.54166e-07
1.89727e-06
3.04029e-07
2.25873e-06
2.48077e-08
2.6596e-06
-2.79903e-07
3.10253e-06
-6.03818e-07
3.58842e-06
-9.37005e-07
4.11528e-06
-1.26485e-06
4.67655e-06
-1.56705e-06
5.25876e-06
-1.8171e-06
5.83824e-06
-1.9828e-06
6.37707e-06
-2.02889e-06
6.81831e-06
-1.92328e-06
7.08148e-06
-1.64836e-06
7.06009e-06
-1.2181e-06
6.62442e-06
-6.98942e-07
5.63354e-06
-2.26741e-07
3.96162e-06
1.54772e-06
-1.6483e-07
-1.23506e-06
-5.36155e-07
-3.2182e-06
-9.86326e-07
-4.67022e-06
-1.41676e-06
-5.62274e-06
-1.76738e-06
-6.15028e-06
-2.01127e-06
-6.34119e-06
-2.14498e-06
-6.28153e-06
-2.17917e-06
-6.04652e-06
-2.13128e-06
-5.69724e-06
-2.02067e-06
-5.28059e-06
-1.86572e-06
-4.83105e-06
-1.68245e-06
-4.37292e-06
-1.48406e-06
-3.92257e-06
-1.28091e-06
-3.49044e-06
-1.08087e-06
-3.08259e-06
-8.89719e-07
-2.70194e-06
-7.11546e-07
-2.34922e-06
-5.49164e-07
-2.02362e-06
-4.04423e-07
-1.72327e-06
-2.78495e-07
-1.44561e-06
-1.72094e-07
-1.18758e-06
-8.56539e-08
-9.45842e-07
-1.94597e-08
-7.16817e-07
2.62495e-08
-4.96804e-07
5.12106e-08
-2.81996e-07
5.50917e-08
-6.85065e-08
3.7472e-08
1.47622e-07
-2.15408e-09
3.70412e-07
-6.43462e-08
6.03943e-07
-1.49661e-07
8.52344e-07
-2.58554e-07
1.11975e-06
-3.91238e-07
1.41027e-06
-5.47494e-07
1.72786e-06
-7.26404e-07
2.07618e-06
-9.26009e-07
2.45833e-06
-1.14287e-06
2.87647e-06
-1.37156e-06
3.33122e-06
-1.60402e-06
3.82088e-06
-1.82892e-06
4.34018e-06
-2.03114e-06
4.87877e-06
-2.19144e-06
5.41906e-06
-2.28688e-06
5.93368e-06
-2.29234e-06
6.38253e-06
-2.18401e-06
6.70998e-06
-1.94554e-06
6.843e-06
-1.57724e-06
6.69179e-06
-1.10792e-06
6.15511e-06
-6.06544e-07
5.13216e-06
-1.87769e-07
3.54285e-06
1.35995e-06
-1.38859e-07
-1.0962e-06
-4.6693e-07
-2.89013e-06
-8.88341e-07
-4.24881e-06
-1.32272e-06
-5.18837e-06
-1.71453e-06
-5.75847e-06
-2.03238e-06
-6.02334e-06
-2.2641e-06
-6.04982e-06
-2.41073e-06
-5.89989e-06
-2.48123e-06
-5.62674e-06
-2.48834e-06
-5.27347e-06
-2.44585e-06
-4.87354e-06
-2.3669e-06
-4.45187e-06
-2.26313e-06
-4.02635e-06
-2.14433e-06
-3.60924e-06
-2.01846e-06
-3.20846e-06
-1.89175e-06
-2.82864e-06
-1.76901e-06
-2.47196e-06
-1.65381e-06
-2.13881e-06
-1.54881e-06
-1.82827e-06
-1.45591e-06
-1.53851e-06
-1.37649e-06
-1.267e-06
-1.31155e-06
-1.01079e-06
-1.26181e-06
-7.66552e-07
-1.22786e-06
-5.30758e-07
-1.21016e-06
-2.99693e-07
-1.20914e-06
-6.95286e-08
-1.22517e-06
1.63654e-07
-1.25858e-06
4.03825e-07
-1.30962e-06
6.54981e-07
-1.37837e-06
9.21094e-07
-1.46467e-06
1.20605e-06
-1.56794e-06
1.51355e-06
-1.68704e-06
1.84696e-06
-1.81995e-06
2.2091e-06
-1.96356e-06
2.60194e-06
-2.11324e-06
3.02614e-06
-2.26245e-06
3.48044e-06
-2.40239e-06
3.96081e-06
-2.5216e-06
4.4594e-06
-2.60589e-06
4.96306e-06
-2.63856e-06
5.45173e-06
-2.60138e-06
5.8965e-06
-2.47666e-06
6.25781e-06
-2.25071e-06
6.48404e-06
-1.91919e-06
6.51147e-06
-1.49396e-06
6.26657e-06
-1.01065e-06
5.6718e-06
-5.34392e-07
4.6559e-06
-1.59929e-07
3.16838e-06
1.20002e-06
-1.20223e-07
-9.75979e-07
-4.14329e-07
-2.59602e-06
-8.08584e-07
-3.85456e-06
-1.23749e-06
-4.75946e-06
-1.65159e-06
-5.34437e-06
-2.0187e-06
-5.65622e-06
-2.32181e-06
-5.74672e-06
-2.55544e-06
-5.66626e-06
-2.722e-06
-5.46018e-06
-2.82857e-06
-5.16691e-06
-2.88448e-06
-4.81762e-06
-2.89971e-06
-4.43664e-06
-2.8838e-06
-4.04225e-06
-2.84537e-06
-3.64767e-06
-2.79181e-06
-3.26202e-06
-2.72928e-06
-2.89118e-06
-2.66277e-06
-2.53847e-06
-2.59625e-06
-2.20532e-06
-2.53285e-06
-1.89168e-06
-2.47495e-06
-1.59641e-06
-2.4244e-06
-1.31755e-06
-2.3826e-06
-1.05258e-06
-2.35063e-06
-7.98522e-07
-2.32931e-06
-5.52081e-07
-2.31926e-06
-3.09747e-07
-2.32094e-06
-6.78493e-08
-2.33466e-06
1.77376e-07
-2.36057e-06
4.29735e-07
-2.3986e-06
6.93018e-07
-2.44843e-06
9.70923e-07
-2.50935e-06
1.26696e-06
-2.58013e-06
1.58433e-06
-2.6589e-06
1.92572e-06
-2.74287e-06
2.29307e-06
-2.82814e-06
2.68722e-06
-2.90943e-06
3.10743e-06
-2.97982e-06
3.55083e-06
-3.03056e-06
4.01155e-06
-3.051e-06
4.47984e-06
-3.02881e-06
4.94087e-06
-2.95058e-06
5.3735e-06
-2.80308e-06
5.749e-06
-2.57538e-06
6.0301e-06
-2.26201e-06
6.17067e-06
-1.86717e-06
6.11663e-06
-1.40952e-06
5.80891e-06
-9.26613e-07
5.1889e-06
-4.77243e-07
4.20653e-06
-1.39266e-07
2.83041e-06
1.06075e-06
-1.06482e-07
-8.69497e-07
-3.73868e-07
-2.32863e-06
-7.44014e-07
-3.48441e-06
-1.16312e-06
-4.34036e-06
-1.58781e-06
-4.91968e-06
-1.98706e-06
-5.25697e-06
-2.34151e-06
-5.39226e-06
-2.64154e-06
-5.36623e-06
-2.88475e-06
-5.21696e-06
-3.07365e-06
-4.97801e-06
-3.21365e-06
-4.67761e-06
-3.31166e-06
-4.33864e-06
-3.37495e-06
-3.97895e-06
-3.4106e-06
-3.61202e-06
-3.42506e-06
-3.24756e-06
-3.424e-06
-2.89225e-06
-3.41223e-06
-2.55024e-06
-3.39378e-06
-2.22377e-06
-3.37194e-06
-1.91352e-06
-3.34937e-06
-1.61898e-06
-3.32818e-06
-1.33874e-06
-3.31003e-06
-1.07073e-06
-3.29622e-06
-8.12332e-07
-3.28773e-06
-5.60579e-07
-3.28525e-06
-3.12223e-07
-3.28926e-06
-6.38411e-08
-3.29997e-06
1.88091e-07
-3.31736e-06
4.47124e-07
-3.34109e-06
7.16749e-07
-3.37048e-06
1.00031e-06
-3.40437e-06
1.30086e-06
-3.44108e-06
1.62104e-06
-3.47819e-06
1.96284e-06
-3.51246e-06
2.32734e-06
-3.53959e-06
2.71435e-06
-3.55412e-06
3.12197e-06
-3.5493e-06
3.54601e-06
-3.51707e-06
3.97931e-06
-3.44818e-06
4.41095e-06
-3.33266e-06
4.82536e-06
-3.1606e-06
5.20144e-06
-2.92346e-06
5.51186e-06
-2.61607e-06
5.72271e-06
-2.2392e-06
5.7938e-06
-1.80276e-06
5.68019e-06
-1.3289e-06
5.33505e-06
-8.54418e-07
4.71442e-06
-4.31199e-07
3.78331e-06
-1.234e-07
2.52261e-06
9.37355e-07
-9.61103e-08
-7.73387e-07
-3.42346e-07
-2.0824e-06
-6.91699e-07
-3.13506e-06
-1.09941e-06
-3.93265e-06
-1.52762e-06
-4.49148e-06
-1.94725e-06
-4.83734e-06
-2.33823e-06
-5.00129e-06
-2.68839e-06
-5.01607e-06
-2.992e-06
-4.91336e-06
-3.24802e-06
-4.72199e-06
-3.45861e-06
-4.46702e-06
-3.62789e-06
-4.16937e-06
-3.76093e-06
-3.84592e-06
-3.86315e-06
-3.5098e-06
-3.93984e-06
-3.17087e-06
-3.99592e-06
-2.83617e-06
-4.03576e-06
-2.5104e-06
-4.06319e-06
-2.19635e-06
-4.08144e-06
-1.89526e-06
-4.09323e-06
-1.60719e-06
-4.10076e-06
-1.33121e-06
-4.10583e-06
-1.06566e-06
-4.10983e-06
-8.08337e-07
-4.1138e-06
-5.56606e-07
-4.11848e-06
-3.0754e-07
-4.1243e-06
-5.80196e-08
-4.13139e-06
1.95175e-07
-4.13954e-06
4.55271e-07
-4.14819e-06
7.25402e-07
-4.15638e-06
1.00849e-06
-4.16265e-06
1.30713e-06
-4.16497e-06
1.62337e-06
-4.16066e-06
1.95853e-06
-4.14624e-06
2.31292e-06
-4.11738e-06
2.68549e-06
-4.06883e-06
3.07341e-06
-3.9944e-06
3.47158e-06
-3.88712e-06
3.87204e-06
-3.73951e-06
4.26334e-06
-3.5441e-06
4.62995e-06
-3.29434e-06
4.95168e-06
-2.98581e-06
5.20333e-06
-2.61794e-06
5.35484e-06
-2.19607e-06
5.37193e-06
-1.73364e-06
5.21776e-06
-1.25417e-06
4.85558e-06
-7.9234e-07
4.25259e-06
-3.93492e-07
3.38446e-06
-1.10873e-07
2.23999e-06
8.26482e-07
-8.81303e-08
-6.85256e-07
-3.17491e-07
-1.85304e-06
-6.4916e-07
-2.80339e-06
-1.04535e-06
-3.53646e-06
-1.47287e-06
-4.06395e-06
-1.90493e-06
-4.40528e-06
-2.32156e-06
-4.58466e-06
-2.70923e-06
-4.62839e-06
-3.05995e-06
-4.56264e-06
-3.37005e-06
-4.4119e-06
-3.63905e-06
-4.19801e-06
-3.86868e-06
-3.93974e-06
-4.062e-06
-3.65259e-06
-4.22282e-06
-3.34899e-06
-4.35518e-06
-3.03851e-06
-4.4631e-06
-2.72825e-06
-4.55037e-06
-2.42313e-06
-4.6204e-06
-2.12631e-06
-4.67622e-06
-1.83944e-06
-4.72043e-06
-1.56299e-06
-4.7552e-06
-1.29644e-06
-4.78231e-06
-1.03854e-06
-4.80318e-06
-7.87467e-07
-4.81885e-06
-5.40934e-07
-4.83003e-06
-2.96363e-07
-4.83708e-06
-5.09717e-08
-4.84002e-06
1.98114e-07
-4.8385e-06
4.53758e-07
-4.8318e-06
7.18701e-07
-4.81875e-06
9.95438e-07
-4.79768e-06
1.28606e-06
-4.76641e-06
1.59209e-06
-4.72213e-06
1.91425e-06
-4.66141e-06
2.25219e-06
-4.58013e-06
2.6042e-06
-4.47351e-06
2.96679e-06
-4.33623e-06
3.33431e-06
-4.16265e-06
3.69845e-06
-3.94713e-06
4.04782e-06
-3.68468e-06
4.3675e-06
-3.37174e-06
4.63874e-06
-3.00735e-06
4.83894e-06
-2.5945e-06
4.94199e-06
-2.14167e-06
4.9191e-06
-1.66431e-06
4.74041e-06
-1.18602e-06
4.37729e-06
-7.38803e-07
3.80537e-06
-3.62181e-07
3.00784e-06
-1.00761e-07
1.97857e-06
7.25721e-07
-8.18938e-08
-6.03363e-07
-2.97687e-07
-1.63724e-06
-6.14421e-07
-2.48665e-06
-9.99667e-07
-3.15121e-06
-1.42416e-06
-3.63946e-06
-1.86327e-06
-3.96617e-06
-2.29765e-06
-4.15028e-06
-2.71316e-06
-4.21289e-06
-3.1003e-06
-4.17549e-06
-3.45351e-06
-4.05869e-06
-3.77027e-06
-3.88126e-06
-4.0503e-06
-3.65971e-06
-4.29491e-06
-3.40798e-06
-4.5064e-06
-3.1375e-06
-4.6876e-06
-2.85731e-06
-4.84161e-06
-2.57424e-06
-4.97149e-06
-2.29325e-06
-5.08017e-06
-2.01763e-06
-5.17033e-06
-1.74928e-06
-5.24435e-06
-1.48897e-06
-5.30426e-06
-1.23653e-06
-5.35174e-06
-9.91057e-07
-5.38815e-06
-7.51062e-07
-5.41446e-06
-5.14623e-07
-5.43132e-06
-2.79508e-07
-5.439e-06
-4.32908e-08
-5.43742e-06
1.96538e-07
-5.42613e-06
4.42464e-07
-5.40425e-06
6.96826e-07
-5.3705e-06
9.61689e-07
-5.32313e-06
1.23869e-06
-5.2599e-06
1.52886e-06
-5.17808e-06
1.83243e-06
-5.07441e-06
2.14853e-06
-4.9452e-06
2.47499e-06
-4.78634e-06
2.80793e-06
-4.59354e-06
3.1415e-06
-4.36252e-06
3.46743e-06
-4.0895e-06
3.77481e-06
-3.77173e-06
4.04973e-06
-3.40827e-06
4.27528e-06
-3.00093e-06
4.4316e-06
-2.55532e-06
4.49638e-06
-2.08201e-06
4.44579e-06
-1.59746e-06
4.25585e-06
-1.12455e-06
3.90438e-06
-6.92527e-07
3.37334e-06
-3.35911e-07
2.65122e-06
-9.24657e-08
1.73512e-06
6.33255e-07
-7.69616e-08
-5.26401e-07
-2.81778e-07
-1.43243e-06
-5.85952e-07
-2.18248e-06
-9.61196e-07
-2.77597e-06
-1.38143e-06
-3.21922e-06
-1.82404e-06
-3.52356e-06
-2.27049e-06
-3.70384e-06
-2.70644e-06
-3.77694e-06
-3.12151e-06
-3.76042e-06
-3.50878e-06
-3.67142e-06
-3.86414e-06
-3.5259e-06
-4.18574e-06
-3.33811e-06
-4.47337e-06
-3.12035e-06
-4.728e-06
-2.88288e-06
-4.95133e-06
-2.63397e-06
-5.14552e-06
-2.38004e-06
-5.31294e-06
-2.12583e-06
-5.45596e-06
-1.87462e-06
-5.57683e-06
-1.62841e-06
-5.67764e-06
-1.38816e-06
-5.7602e-06
-1.15397e-06
-5.82604e-06
-9.25215e-07
-5.87638e-06
-7.0072e-07
-5.91211e-06
-4.78897e-07
-5.93376e-06
-2.57855e-07
-5.94153e-06
-3.55233e-08
-5.93523e-06
1.90243e-07
-5.91432e-06
4.21552e-07
-5.87785e-06
6.60351e-07
-5.82446e-06
9.08304e-07
-5.75241e-06
1.16664e-06
-5.65952e-06
1.43597e-06
-5.54323e-06
1.71614e-06
-5.40063e-06
2.00593e-06
-5.22855e-06
2.3029e-06
-5.02365e-06
2.60304e-06
-4.7827e-06
2.90055e-06
-4.50282e-06
3.18756e-06
-4.18193e-06
3.45391e-06
-3.81925e-06
3.68706e-06
-3.41602e-06
3.87204e-06
-2.9762e-06
3.99177e-06
-2.50732e-06
4.02751e-06
-2.02125e-06
3.95972e-06
-1.53474e-06
3.76934e-06
-1.06963e-06
3.43928e-06
-6.52526e-07
2.95624e-06
-3.13735e-07
2.31243e-06
-8.55888e-08
1.50698e-06
5.47666e-07
-7.30308e-08
-4.5337e-07
-2.68937e-07
-1.23652e-06
-5.62595e-07
-1.88882e-06
-9.28921e-07
-2.40964e-06
-1.34442e-06
-2.80372e-06
-1.78822e-06
-3.07976e-06
-2.24265e-06
-3.24941e-06
-2.69347e-06
-3.32612e-06
-3.12977e-06
-3.32411e-06
-3.54368e-06
-3.25751e-06
-3.92993e-06
-3.13965e-06
-4.28539e-06
-2.98265e-06
-4.60861e-06
-2.79713e-06
-4.8994e-06
-2.59209e-06
-5.15846e-06
-2.37491e-06
-5.3871e-06
-2.15141e-06
-5.58697e-06
-1.92597e-06
-5.75987e-06
-1.70171e-06
-5.90763e-06
-1.48064e-06
-6.03199e-06
-1.2638e-06
-6.1345e-06
-1.05146e-06
-6.2165e-06
-8.43215e-07
-6.27904e-06
-6.38177e-07
-6.32289e-06
-4.35054e-07
-6.34846e-06
-2.32281e-07
-6.35586e-06
-2.81275e-08
-6.34481e-06
1.792e-07
-6.31471e-06
3.91446e-07
-6.26455e-06
6.10195e-07
-6.19299e-06
8.36748e-07
-6.09834e-06
1.07198e-06
-5.97856e-06
1.31619e-06
-5.83135e-06
1.56893e-06
-5.65421e-06
1.8288e-06
-5.44455e-06
2.09324e-06
-5.19986e-06
2.35834e-06
-4.91793e-06
2.61862e-06
-4.59719e-06
2.86682e-06
-4.23707e-06
3.09379e-06
-3.83849e-06
3.28848e-06
-3.40443e-06
3.43798e-06
-2.9405e-06
3.52785e-06
-2.45558e-06
3.54259e-06
-1.96228e-06
3.46641e-06
-1.47722e-06
3.28429e-06
-1.02109e-06
2.98314e-06
-6.18072e-07
2.55322e-06
-2.94993e-07
1.98935e-06
-7.9861e-08
1.29185e-06
4.67805e-07
-6.98896e-08
-3.83481e-07
-2.5857e-07
-1.04784e-06
-5.43482e-07
-1.60391e-06
-9.02028e-07
-2.0511e-06
-1.31278e-06
-2.39296e-06
-1.75634e-06
-2.6362e-06
-2.21588e-06
-2.78988e-06
-2.67736e-06
-2.86463e-06
-3.12964e-06
-2.87184e-06
-3.56418e-06
-2.82297e-06
-3.97485e-06
-2.72898e-06
-4.35753e-06
-2.59997e-06
-4.70976e-06
-2.4449e-06
-5.03039e-06
-2.27146e-06
-5.31925e-06
-2.08606e-06
-5.57686e-06
-1.8938e-06
-5.80422e-06
-1.6986e-06
-6.00261e-06
-1.50332e-06
-6.17342e-06
-1.30983e-06
-6.31803e-06
-1.11919e-06
-6.43772e-06
-9.31763e-07
-6.53361e-06
-7.47324e-07
-6.60659e-06
-5.65207e-07
-6.65725e-06
-3.8439e-07
-6.68592e-06
-2.03608e-07
-6.6926e-06
-2.14474e-08
-6.67696e-06
1.63552e-07
-6.63831e-06
3.52803e-07
-6.57568e-06
5.47558e-07
-6.48773e-06
7.48805e-07
-6.37289e-06
9.57136e-07
-6.22931e-06
1.17261e-06
-6.05499e-06
1.39461e-06
-5.84788e-06
1.62168e-06
-5.60597e-06
1.85134e-06
-5.32756e-06
2.07993e-06
-5.0114e-06
2.30247e-06
-4.65709e-06
2.5125e-06
-4.26535e-06
2.70205e-06
-3.83852e-06
2.86164e-06
-3.38095e-06
2.98041e-06
-2.89949e-06
3.04639e-06
-2.40392e-06
3.04701e-06
-1.9072e-06
2.9697e-06
-1.42566e-06
2.80275e-06
-9.78764e-07
2.53624e-06
-5.88638e-07
2.1631e-06
-2.79222e-07
1.67993e-06
-7.50979e-08
1.08772e-06
3.92707e-07
-6.73894e-08
-3.16091e-07
-2.50248e-07
-8.64983e-07
-5.27973e-07
-1.32618e-06
-8.79882e-07
-1.69919e-06
-1.28619e-06
-1.98666e-06
-1.72871e-06
-2.19368e-06
-2.19135e-06
-2.32724e-06
-2.66038e-06
-2.3956e-06
-3.12452e-06
-2.4077e-06
-3.57482e-06
-2.37266e-06
-4.00452e-06
-2.29928e-06
-4.40875e-06
-2.19574e-06
-4.78423e-06
-2.06941e-06
-5.12903e-06
-1.92666e-06
-5.44224e-06
-1.77285e-06
-5.72372e-06
-1.61232e-06
-5.97388e-06
-1.44844e-06
-6.19353e-06
-1.28368e-06
-6.38362e-06
-1.11974e-06
-6.54522e-06
-9.57593e-07
-6.67935e-06
-7.97641e-07
-6.78688e-06
-6.3979e-07
-6.86854e-06
-4.83552e-07
-6.92478e-06
-3.28143e-07
-6.95582e-06
-1.72565e-07
-6.96157e-06
-1.56992e-08
-6.94163e-06
1.43614e-07
-6.89531e-06
3.06481e-07
-6.82162e-06
4.73869e-07
-6.71932e-06
6.46499e-07
-6.58693e-06
8.24746e-07
-6.42283e-06
1.00852e-06
-6.22535e-06
1.19713e-06
-5.99285e-06
1.38918e-06
-5.72393e-06
1.58241e-06
-5.41757e-06
1.77357e-06
-5.07342e-06
1.95831e-06
-4.69205e-06
2.13113e-06
-4.27531e-06
2.28531e-06
-3.82663e-06
2.41297e-06
-3.35145e-06
2.50523e-06
-2.85753e-06
2.55247e-06
-2.3552e-06
2.54469e-06
-1.85761e-06
2.4721e-06
-1.3806e-06
2.32574e-06
-9.42556e-07
2.0982e-06
-5.63853e-07
1.78439e-06
-2.661e-07
1.38218e-06
-7.11728e-08
8.92795e-07
3.21534e-07
-6.54255e-08
-2.50666e-07
-2.43667e-07
-6.86741e-07
-5.15601e-07
-1.05425e-06
-8.62006e-07
-1.35278e-06
-1.26437e-06
-1.58429e-06
-1.70548e-06
-1.75256e-06
-2.16989e-06
-1.86283e-06
-2.64416e-06
-1.92133e-06
-3.11696e-06
-1.9349e-06
-3.5791e-06
-1.91052e-06
-4.02335e-06
-1.85503e-06
-4.44426e-06
-1.77483e-06
-4.83797e-06
-1.67571e-06
-5.20189e-06
-1.56274e-06
-5.5345e-06
-1.44024e-06
-5.83513e-06
-1.31169e-06
-6.1037e-06
-1.17987e-06
-6.34056e-06
-1.04682e-06
-6.54634e-06
-9.13957e-07
-6.72179e-06
-7.82145e-07
-6.86767e-06
-6.5176e-07
-6.98467e-06
-5.22786e-07
-7.07334e-06
-3.94882e-07
-7.13402e-06
-2.67464e-07
-7.16681e-06
-1.39778e-07
-7.17154e-06
-1.09683e-08
-7.14778e-06
1.19849e-07
-7.09481e-06
2.53512e-07
-7.01167e-06
3.90735e-07
-6.8972e-06
5.32028e-07
-6.75006e-06
6.77608e-07
-6.56885e-06
8.27305e-07
-6.35218e-06
9.80462e-07
-6.09883e-06
1.13583e-06
-5.80789e-06
1.29148e-06
-5.47901e-06
1.44468e-06
-5.11254e-06
1.59185e-06
-4.70991e-06
1.7285e-06
-4.27383e-06
1.84923e-06
-3.80864e-06
1.94777e-06
-3.32056e-06
2.01715e-06
-2.81799e-06
2.0499e-06
-2.31166e-06
2.03836e-06
-1.81467e-06
1.97512e-06
-1.34245e-06
1.85351e-06
-9.12398e-07
1.66815e-06
-5.43462e-07
1.41546e-06
-2.55406e-07
1.09413e-06
-6.79981e-08
7.05387e-07
2.53536e-07
-6.39247e-08
-1.86741e-07
-2.38612e-07
-5.12054e-07
-5.06031e-07
-7.86831e-07
-8.48051e-07
-1.01076e-06
-1.24712e-06
-1.18522e-06
-1.68679e-06
-1.31289e-06
-2.15211e-06
-1.3975e-06
-2.62991e-06
-1.44354e-06
-3.10888e-06
-1.45593e-06
-3.57966e-06
-1.43975e-06
-4.0347e-06
-1.39999e-06
-4.46815e-06
-1.34137e-06
-4.87566e-06
-1.26819e-06
-5.25418e-06
-1.18422e-06
-5.60173e-06
-1.09269e-06
-5.91716e-06
-9.96256e-07
-6.20002e-06
-8.97009e-07
-6.45031e-06
-7.96528e-07
-6.66835e-06
-6.95917e-07
-6.85464e-06
-5.95859e-07
-7.00972e-06
-4.96675e-07
-7.13412e-06
-3.98385e-07
-7.22824e-06
-3.00764e-07
-7.2923e-06
-2.03403e-07
-7.32632e-06
-1.05759e-07
-7.33007e-06
-7.21789e-09
-7.30308e-06
9.28572e-08
-7.24463e-06
1.95064e-07
-7.1538e-06
2.99903e-07
-7.02949e-06
4.07715e-07
-6.87049e-06
5.18612e-07
-6.67559e-06
6.32411e-07
-6.44368e-06
7.48552e-07
-6.17388e-06
8.6603e-07
-5.86572e-06
9.83318e-07
-5.51935e-06
1.09831e-06
-5.13574e-06
1.20824e-06
-4.71696e-06
1.30973e-06
-4.26642e-06
1.39869e-06
-3.78911e-06
1.47046e-06
-3.29186e-06
1.5199e-06
-2.7835e-06
1.54154e-06
-2.27497e-06
1.52983e-06
-1.77932e-06
1.47947e-06
-1.31154e-06
1.38573e-06
-8.88263e-07
1.24487e-06
-5.27296e-07
1.05449e-06
-2.46989e-07
8.13818e-07
-6.5514e-08
5.23912e-07
1.88022e-07
-6.28367e-08
-1.23904e-07
-2.34932e-07
-3.39959e-07
-4.9903e-07
-5.22733e-07
-8.37772e-07
-6.72022e-07
-1.2343e-06
-7.887e-07
-1.67271e-06
-8.74484e-07
-2.13844e-06
-9.31775e-07
-2.61851e-06
-9.63468e-07
-3.10168e-06
-9.72759e-07
-3.57846e-06
-9.6296e-07
-4.04111e-06
-9.3734e-07
-4.48349e-06
-8.98996e-07
-4.90091e-06
-8.50765e-07
-5.28998e-06
-7.95156e-07
-5.64836e-06
-7.34317e-07
-5.97459e-06
-6.70026e-07
-6.2679e-06
-6.03693e-07
-6.52804e-06
-5.36389e-07
-6.75509e-06
-4.68866e-07
-6.94935e-06
-4.01598e-07
-7.11121e-06
-3.34818e-07
-7.24104e-06
-2.68553e-07
-7.33914e-06
-2.0267e-07
-7.40563e-06
-1.36908e-07
-7.44047e-06
-7.09184e-08
-7.44339e-06
-4.30395e-09
-7.41388e-06
6.33457e-08
-7.35123e-06
1.32414e-07
-7.25454e-06
2.03217e-07
-7.12279e-06
2.75962e-07
-6.95487e-06
3.50699e-07
-6.74974e-06
4.27278e-07
-6.50648e-06
5.05294e-07
-6.2245e-06
5.84044e-07
-5.90366e-06
6.62476e-07
-5.5445e-06
7.39149e-07
-5.14846e-06
8.12206e-07
-4.71809e-06
8.79357e-07
-4.25729e-06
9.3789e-07
-3.77154e-06
9.84714e-07
-3.26807e-06
1.01643e-06
-2.75601e-06
1.02947e-06
-2.24641e-06
1.02023e-06
-1.75223e-06
9.85289e-07
-1.28813e-06
9.21627e-07
-8.70148e-07
8.26887e-07
-5.15246e-07
6.99588e-07
-2.40748e-07
5.39319e-07
-6.36803e-08
3.46845e-07
1.24342e-07
-6.2128e-08
-6.17762e-08
-2.32529e-07
-1.69558e-07
-4.94442e-07
-2.6082e-07
-8.31002e-07
-3.35462e-07
-1.22579e-06
-3.93907e-07
-1.66328e-06
-4.36995e-07
-2.12916e-06
-4.659e-07
-2.61058e-06
-4.82043e-07
-3.09635e-06
-4.86995e-07
-3.57692e-06
-4.8239e-07
-4.04441e-06
-4.69844e-07
-4.49251e-06
-4.50894e-07
-4.91633e-06
-4.26947e-07
-5.31223e-06
-3.99256e-07
-5.67766e-06
-3.68894e-07
-6.01093e-06
-3.36751e-07
-6.31109e-06
-3.03538e-07
-6.57768e-06
-2.69793e-07
-6.81065e-06
-2.359e-07
-7.01015e-06
-2.02099e-07
-7.17645e-06
-1.68513e-07
-7.30984e-06
-1.35161e-07
-7.41054e-06
-1.01979e-07
-7.4786e-06
-6.88424e-08
-7.51394e-06
-3.55801e-08
-7.51625e-06
-1.99717e-09
-7.48501e-06
3.21071e-08
-7.41951e-06
6.69199e-08
-7.31889e-06
1.02594e-07
-7.18215e-06
1.39226e-07
-7.00829e-06
1.76834e-07
-6.79634e-06
2.15334e-07
-6.54557e-06
2.54516e-07
-6.25554e-06