/*--------------------------------*- C++ -*----------------------------------*\
  =========                 |
  \\      /  F ield         | OpenFOAM: The Open Source CFD Toolbox
   \\    /   O peration     | Website:  https://openfoam.org
    \\  /    A nd           | Version:  7
     \\/     M anipulation  |
\*---------------------------------------------------------------------------*/
FoamFile
{
    version     2.0;
    format      ascii;
    class       volScalarField;
    location    "0.0418";
    object      p;
}
// * * * * * * * * * * * * * * * * * * * * * * * * * * * * * * * * * * * * * //

dimensions      [0 2 -2 0 0 0 0];

internalField   nonuniform List<scalar> 
2500
(
3.95274e-05
-6.51178
-9.29669
-10.4922
-11.1572
-11.5631
-11.8263
-12.0105
-12.1478
-12.2544
-12.3398
-12.4095
-12.4673
-12.5158
-12.5569
-12.5918
-12.6217
-12.6472
-12.6692
-12.688
-12.7042
-12.718
-12.73
-12.7404
-12.7494
-12.7575
-12.7649
-12.7718
-12.7787
-12.7859
-12.7936
-12.8024
-12.8128
-12.8252
-12.8403
-12.859
-12.8822
-12.9112
-12.9478
-12.9942
-13.0539
-13.1323
-13.2381
-13.3868
-13.6094
-13.9669
-14.5663
-15.6669
-18.3339
-24.7187
-4.95556
-7.67542
-9.18201
-10.1419
-10.8095
-11.2692
-11.5905
-11.8235
-11.9986
-12.134
-12.2414
-12.3283
-12.3998
-12.4594
-12.5096
-12.5523
-12.5887
-12.6201
-12.6471
-12.6706
-12.691
-12.7089
-12.7247
-12.7387
-12.7514
-12.7631
-12.7741
-12.7848
-12.7956
-12.8069
-12.8192
-12.8329
-12.8486
-12.8671
-12.8892
-12.9159
-12.9486
-12.9891
-13.0398
-13.1039
-13.1865
-13.2946
-13.4393
-13.6381
-13.9202
-14.3335
-14.943
-15.8309
-17.2508
-19.8499
-7.92528
-8.75755
-9.55839
-10.2393
-10.7793
-11.1892
-11.4986
-11.7352
-11.919
-12.0644
-12.1812
-12.2766
-12.3556
-12.4217
-12.4776
-12.5252
-12.5661
-12.6014
-12.6321
-12.6589
-12.6824
-12.7032
-12.7218
-12.7386
-12.754
-12.7683
-12.7821
-12.7956
-12.8093
-12.8237
-12.8392
-12.8564
-12.8759
-12.8986
-12.9253
-12.9573
-12.996
-13.0434
-13.1019
-13.1752
-13.2679
-13.3869
-13.5418
-13.7461
-14.0194
-14.3879
-14.8799
-15.5076
-16.2531
-17.0165
-9.43502
-9.64815
-10.0671
-10.5119
-10.9048
-11.2318
-11.4982
-11.7138
-11.8886
-12.0313
-12.1487
-12.2463
-12.3281
-12.3973
-12.4562
-12.5069
-12.5506
-12.5886
-12.6219
-12.6511
-12.6769
-12.7
-12.7207
-12.7397
-12.7572
-12.7736
-12.7895
-12.8052
-12.8212
-12.8379
-12.8558
-12.8755
-12.8978
-12.9234
-12.9532
-12.9885
-13.0307
-13.0816
-13.1436
-13.2197
-13.314
-13.4317
-13.5794
-13.7656
-14
-14.292
-14.6471
-15.0528
-15.4349
-15.6126
-10.3208
-10.3199
-10.5236
-10.8003
-11.075
-11.325
-11.5436
-11.7305
-11.8886
-12.022
-12.1348
-12.2304
-12.312
-12.3819
-12.4422
-12.4944
-12.5399
-12.5797
-12.6147
-12.6458
-12.6734
-12.6983
-12.7208
-12.7415
-12.7607
-12.7789
-12.7966
-12.8141
-12.8319
-12.8504
-12.8702
-12.8919
-12.9162
-12.9438
-12.9756
-13.0128
-13.0567
-13.1089
-13.1713
-13.2465
-13.3374
-13.4475
-13.5808
-13.7413
-13.9323
-14.1534
-14.3987
-14.6474
-14.827
-14.8084
-10.8877
-10.813
-10.9015
-11.0688
-11.2566
-11.4429
-11.6169
-11.7735
-11.9116
-12.0322
-12.1369
-12.2277
-12.3066
-12.3752
-12.4351
-12.4876
-12.5337
-12.5744
-12.6106
-12.6428
-12.6717
-12.6978
-12.7217
-12.7437
-12.7643
-12.7839
-12.8029
-12.8218
-12.8409
-12.8608
-12.882
-12.905
-12.9305
-12.9592
-12.992
-13.0298
-13.0738
-13.1253
-13.1859
-13.2573
-13.3415
-13.4405
-13.5561
-13.6896
-13.8399
-14.0028
-14.1681
-14.3155
-14.3888
-14.3069
-11.2699
-11.1784
-11.2083
-11.3071
-11.4335
-11.5698
-11.7053
-11.8334
-11.9511
-12.0572
-12.1519
-12.2359
-12.3103
-12.3761
-12.4343
-12.4859
-12.5317
-12.5726
-12.6091
-12.6419
-12.6715
-12.6984
-12.7231
-12.746
-12.7676
-12.7881
-12.8081
-12.8279
-12.848
-12.8688
-12.8908
-12.9145
-12.9406
-12.9696
-13.0024
-13.0397
-13.0826
-13.1319
-13.1889
-13.2547
-13.3303
-13.4167
-13.5143
-13.6223
-13.7379
-13.8554
-13.9647
-14.0494
-14.0702
-13.9773
-11.5431
-11.4553
-11.456
-11.5125
-11.5964
-11.6949
-11.799
-11.9022
-12.0006
-12.0923
-12.1763
-12.2526
-12.3214
-12.3833
-12.4388
-12.4886
-12.5333
-12.5735
-12.6098
-12.6426
-12.6724
-12.6997
-12.7248
-12.7483
-12.7704
-12.7915
-12.812
-12.8324
-12.853
-12.8742
-12.8965
-12.9204
-12.9464
-12.9751
-13.0072
-13.0432
-13.084
-13.1302
-13.1825
-13.2418
-13.3083
-13.3821
-13.4628
-13.5486
-13.6363
-13.7198
-13.7909
-13.8375
-13.8332
-13.7473
-11.7489
-11.6704
-11.6569
-11.6873
-11.7422
-11.8129
-11.8922
-11.9744
-12.0557
-12.1337
-12.2072
-12.2753
-12.338
-12.3953
-12.4474
-12.4948
-12.5377
-12.5767
-12.6122
-12.6445
-12.6741
-12.7013
-12.7266
-12.7501
-12.7724
-12.7938
-12.8145
-12.8351
-12.8558
-12.877
-12.8992
-12.9229
-12.9484
-12.9762
-13.007
-13.0411
-13.0792
-13.1216
-13.1689
-13.2214
-13.2789
-13.3411
-13.4069
-13.4744
-13.5401
-13.5989
-13.6443
-13.6681
-13.6524
-13.5777
-11.9102
-11.8415
-11.8215
-11.8358
-11.871
-11.9213
-11.9813
-12.0463
-12.1128
-12.1786
-12.2421
-12.3023
-12.3586
-12.4109
-12.4593
-12.5037
-12.5444
-12.5818
-12.616
-12.6474
-12.6764
-12.7032
-12.7281
-12.7514
-12.7736
-12.7948
-12.8155
-12.8359
-12.8564
-12.8774
-12.8991
-12.9221
-12.9467
-12.9733
-13.0024
-13.0342
-13.0692
-13.1078
-13.1499
-13.1957
-13.2449
-13.2967
-13.35
-13.4026
-13.4515
-13.4927
-13.5211
-13.5311
-13.5109
-13.4473
-12.0405
-11.9805
-11.9579
-11.9623
-11.9842
-12.0196
-12.0647
-12.1158
-12.17
-12.225
-12.2793
-12.3319
-12.382
-12.4293
-12.4735
-12.5147
-12.5529
-12.5882
-12.6208
-12.651
-12.679
-12.705
-12.7293
-12.7521
-12.7739
-12.7947
-12.815
-12.835
-12.855
-12.8754
-12.8964
-12.9185
-12.9419
-12.967
-12.9941
-13.0234
-13.0553
-13.0898
-13.127
-13.1667
-13.2084
-13.2513
-13.2941
-13.3349
-13.3713
-13.3998
-13.4169
-13.419
-13.3976
-13.3436
-12.1481
-12.0956
-12.0724
-12.0707
-12.0835
-12.1082
-12.1419
-12.1818
-12.2256
-12.2713
-12.3174
-12.363
-12.4071
-12.4494
-12.4895
-12.5272
-12.5626
-12.5956
-12.6264
-12.655
-12.6817
-12.7067
-12.7301
-12.7522
-12.7732
-12.7934
-12.8131
-12.8324
-12.8517
-12.8713
-12.8914
-12.9123
-12.9343
-12.9577
-12.9827
-13.0095
-13.0382
-13.0689
-13.1015
-13.1356
-13.1708
-13.2061
-13.2404
-13.2721
-13.299
-13.3186
-13.3283
-13.3258
-13.305
-13.259
-12.2384
-12.1922
-12.1696
-12.1642
-12.1708
-12.1876
-12.2126
-12.2437
-12.2789
-12.3166
-12.3556
-12.3947
-12.4332
-12.4707
-12.5067
-12.5409
-12.5733
-12.6038
-12.6325
-12.6594
-12.6846
-12.7082
-12.7305
-12.7516
-12.7718
-12.7911
-12.8099
-12.8284
-12.8468
-12.8653
-12.8843
-12.9039
-12.9245
-12.9461
-12.9689
-12.9932
-13.0189
-13.046
-13.0743
-13.1035
-13.1331
-13.1622
-13.1897
-13.2142
-13.2341
-13.2474
-13.2523
-13.2472
-13.2278
-13.1886
-12.3152
-12.2745
-12.253
-12.2455
-12.2479
-12.2589
-12.2773
-12.3013
-12.3295
-12.3604
-12.393
-12.4264
-12.4598
-12.4926
-12.5246
-12.5554
-12.5847
-12.6127
-12.6391
-12.664
-12.6875
-12.7097
-12.7307
-12.7506
-12.7696
-12.7879
-12.8057
-12.8231
-12.8405
-12.8579
-12.8756
-12.8938
-12.9127
-12.9325
-12.9533
-12.9751
-12.9979
-13.0217
-13.0463
-13.0712
-13.096
-13.1199
-13.142
-13.1611
-13.1758
-13.1847
-13.1865
-13.1802
-13.1624
-13.129
-12.3814
-12.3454
-12.3253
-12.3167
-12.3162
-12.3231
-12.3364
-12.3548
-12.3772
-12.4024
-12.4295
-12.4577
-12.4863
-12.5149
-12.543
-12.5704
-12.5967
-12.622
-12.646
-12.6689
-12.6905
-12.7111
-12.7306
-12.7491
-12.7669
-12.784
-12.8006
-12.8169
-12.833
-12.8492
-12.8655
-12.8823
-12.8996
-12.9175
-12.9362
-12.9557
-12.9759
-12.9967
-13.0179
-13.0392
-13.06
-13.0797
-13.0974
-13.1123
-13.1232
-13.129
-13.1289
-13.1222
-13.1063
-13.0778
-12.4389
-12.407
-12.3885
-12.3794
-12.3771
-12.381
-12.3904
-12.4044
-12.422
-12.4423
-12.4647
-12.4883
-12.5127
-12.5373
-12.5617
-12.5857
-12.6091
-12.6316
-12.6533
-12.674
-12.6937
-12.7124
-12.7303
-12.7474
-12.7638
-12.7795
-12.7948
-12.8098
-12.8247
-12.8395
-12.8545
-12.8697
-12.8854
-12.9015
-12.9182
-12.9355
-12.9532
-12.9714
-12.9896
-13.0077
-13.0252
-13.0414
-13.0557
-13.0674
-13.0755
-13.0793
-13.078
-13.0715
-13.0574
-13.0332
-12.4892
-12.4611
-12.4442
-12.4352
-12.4317
-12.4334
-12.4399
-12.4503
-12.464
-12.4803
-12.4985
-12.5181
-12.5386
-12.5595
-12.5805
-12.6014
-12.6218
-12.6417
-12.6609
-12.6793
-12.697
-12.7139
-12.7301
-12.7456
-12.7604
-12.7748
-12.7887
-12.8023
-12.8158
-12.8292
-12.8427
-12.8564
-12.8704
-12.8848
-12.8996
-12.9147
-12.9303
-12.946
-12.9617
-12.977
-12.9917
-13.0051
-13.0167
-13.0258
-13.0319
-13.0343
-13.0326
-13.0265
-13.0143
-12.9939
-12.5337
-12.5091
-12.4938
-12.4851
-12.4809
-12.4812
-12.4854
-12.493
-12.5036
-12.5164
-12.5311
-12.5471
-12.564
-12.5816
-12.5994
-12.6172
-12.6348
-12.652
-12.6688
-12.6851
-12.7007
-12.7157
-12.73
-12.7438
-12.7571
-12.7699
-12.7824
-12.7945
-12.8065
-12.8185
-12.8305
-12.8426
-12.855
-12.8676
-12.8806
-12.8938
-12.9072
-12.9208
-12.9342
-12.9472
-12.9594
-12.9705
-12.9799
-12.9872
-12.9919
-12.9934
-12.9915
-12.9861
-12.9758
-12.9587
-12.5734
-12.5519
-12.5383
-12.5302
-12.5257
-12.5249
-12.5275
-12.5329
-12.5408
-12.5507
-12.5623
-12.5752
-12.589
-12.6034
-12.6182
-12.6332
-12.6481
-12.6628
-12.6772
-12.6911
-12.7047
-12.7177
-12.7302
-12.7423
-12.7539
-12.7651
-12.776
-12.7867
-12.7972
-12.8076
-12.8181
-12.8286
-12.8393
-12.8503
-12.8614
-12.8728
-12.8843
-12.8958
-12.9072
-12.9181
-12.9284
-12.9375
-12.9452
-12.9511
-12.9547
-12.9558
-12.954
-12.9494
-12.9409
-12.927
-12.609
-12.5906
-12.5786
-12.5712
-12.5668
-12.5653
-12.5666
-12.5703
-12.576
-12.5835
-12.5924
-12.6025
-12.6135
-12.6251
-12.6371
-12.6493
-12.6616
-12.6738
-12.6859
-12.6977
-12.7091
-12.7202
-12.7308
-12.7411
-12.751
-12.7606
-12.7699
-12.7789
-12.7879
-12.7967
-12.8056
-12.8146
-12.8237
-12.8329
-12.8424
-12.8519
-12.8616
-12.8713
-12.8808
-12.8899
-12.8984
-12.9059
-12.9122
-12.917
-12.9199
-12.9207
-12.9193
-12.9156
-12.9088
-12.8979
-12.6414
-12.6258
-12.6155
-12.6089
-12.6047
-12.6029
-12.6032
-12.6055
-12.6094
-12.6148
-12.6215
-12.6291
-12.6375
-12.6465
-12.6559
-12.6656
-12.6755
-12.6853
-12.6951
-12.7047
-12.714
-12.7231
-12.7319
-12.7404
-12.7485
-12.7564
-12.764
-12.7715
-12.7788
-12.7861
-12.7934
-12.8007
-12.8081
-12.8157
-12.8234
-12.8313
-12.8392
-12.8471
-12.8549
-12.8623
-12.8693
-12.8754
-12.8806
-12.8845
-12.8869
-12.8877
-12.8867
-12.884
-12.879
-12.8709
-12.671
-12.6582
-12.6496
-12.6439
-12.6401
-12.6381
-12.6378
-12.6389
-12.6414
-12.645
-12.6496
-12.655
-12.6611
-12.6677
-12.6748
-12.6821
-12.6896
-12.6972
-12.7048
-12.7122
-12.7195
-12.7267
-12.7336
-12.7402
-12.7466
-12.7527
-12.7587
-12.7645
-12.7702
-12.7758
-12.7814
-12.7871
-12.7928
-12.7987
-12.8047
-12.8109
-12.8171
-12.8233
-12.8295
-12.8354
-12.8409
-12.8458
-12.85
-12.8532
-12.8553
-12.8561
-12.8557
-12.854
-12.8508
-12.8454
-12.6986
-12.6884
-12.6815
-12.6768
-12.6735
-12.6714
-12.6706
-12.6709
-12.6721
-12.6742
-12.677
-12.6804
-12.6844
-12.6889
-12.6937
-12.6988
-12.7041
-12.7095
-12.7149
-12.7203
-12.7257
-12.7308
-12.7359
-12.7407
-12.7453
-12.7497
-12.7539
-12.758
-12.762
-12.7659
-12.7699
-12.7738
-12.7779
-12.782
-12.7863
-12.7907
-12.7953
-12.7998
-12.8044
-12.8088
-12.813
-12.8168
-12.8201
-12.8228
-12.8246
-12.8257
-12.8258
-12.8252
-12.8237
-12.8209
-12.7245
-12.7169
-12.7117
-12.7081
-12.7053
-12.7034
-12.7022
-12.7018
-12.7019
-12.7026
-12.7038
-12.7055
-12.7076
-12.71
-12.7127
-12.7157
-12.7189
-12.7223
-12.7257
-12.7291
-12.7324
-12.7357
-12.7388
-12.7418
-12.7447
-12.7473
-12.7498
-12.7522
-12.7544
-12.7566
-12.7588
-12.761
-12.7633
-12.7657
-12.7682
-12.7709
-12.7737
-12.7766
-12.7796
-12.7826
-12.7855
-12.7882
-12.7907
-12.7928
-12.7945
-12.7957
-12.7966
-12.797
-12.7972
-12.797
-12.7492
-12.7443
-12.7408
-12.7381
-12.736
-12.7342
-12.7329
-12.7318
-12.731
-12.7305
-12.7303
-12.7303
-12.7306
-12.7311
-12.7319
-12.7329
-12.7341
-12.7355
-12.7369
-12.7384
-12.7398
-12.7413
-12.7426
-12.7438
-12.7448
-12.7457
-12.7464
-12.747
-12.7475
-12.7479
-12.7483
-12.7487
-12.7492
-12.7497
-12.7504
-12.7513
-12.7523
-12.7535
-12.7549
-12.7564
-12.7581
-12.7597
-12.7613
-12.7629
-12.7645
-12.766
-12.7675
-12.769
-12.7709
-12.7733
-12.7733
-12.7709
-12.769
-12.7675
-12.766
-12.7645
-12.7629
-12.7613
-12.7597
-12.7581
-12.7565
-12.7549
-12.7535
-12.7523
-12.7513
-12.7504
-12.7497
-12.7492
-12.7487
-12.7483
-12.7479
-12.7475
-12.747
-12.7464
-12.7457
-12.7448
-12.7438
-12.7426
-12.7413
-12.7398
-12.7384
-12.7369
-12.7355
-12.7341
-12.7329
-12.7319
-12.7311
-12.7306
-12.7303
-12.7302
-12.7305
-12.731
-12.7318
-12.7329
-12.7342
-12.736
-12.7381
-12.7407
-12.7442
-12.7492
-12.797
-12.7972
-12.797
-12.7966
-12.7958
-12.7945
-12.7928
-12.7907
-12.7882
-12.7855
-12.7826
-12.7796
-12.7766
-12.7737
-12.7709
-12.7682
-12.7657
-12.7633
-12.761
-12.7588
-12.7566
-12.7544
-12.7522
-12.7498
-12.7473
-12.7447
-12.7418
-12.7388
-12.7357
-12.7324
-12.7291
-12.7257
-12.7223
-12.7189
-12.7157
-12.7127
-12.71
-12.7076
-12.7055
-12.7038
-12.7026
-12.7019
-12.7018
-12.7022
-12.7034
-12.7053
-12.7081
-12.7117
-12.7169
-12.7245
-12.8209
-12.8237
-12.8252
-12.8258
-12.8257
-12.8246
-12.8228
-12.8201
-12.8169
-12.813
-12.8089
-12.8044
-12.7998
-12.7953
-12.7907
-12.7863
-12.782
-12.7779
-12.7738
-12.7699
-12.766
-12.762
-12.758
-12.7539
-12.7497
-12.7453
-12.7407
-12.7358
-12.7308
-12.7257
-12.7203
-12.7149
-12.7095
-12.7041
-12.6988
-12.6937
-12.6889
-12.6844
-12.6804
-12.677
-12.6742
-12.6721
-12.6709
-12.6706
-12.6714
-12.6735
-12.6768
-12.6815
-12.6884
-12.6986
-12.8454
-12.8508
-12.854
-12.8557
-12.8562
-12.8553
-12.8532
-12.85
-12.8458
-12.8409
-12.8354
-12.8295
-12.8233
-12.8171
-12.8109
-12.8047
-12.7987
-12.7928
-12.7871
-12.7814
-12.7758
-12.7702
-12.7645
-12.7587
-12.7527
-12.7466
-12.7402
-12.7335
-12.7267
-12.7195
-12.7122
-12.7048
-12.6972
-12.6896
-12.6821
-12.6748
-12.6677
-12.6611
-12.655
-12.6496
-12.645
-12.6414
-12.6389
-12.6377
-12.6381
-12.6401
-12.6439
-12.6496
-12.6582
-12.671
-12.8709
-12.879
-12.884
-12.8867
-12.8877
-12.8869
-12.8845
-12.8806
-12.8754
-12.8693
-12.8624
-12.8549
-12.8471
-12.8392
-12.8313
-12.8234
-12.8157
-12.8081
-12.8007
-12.7934
-12.7861
-12.7788
-12.7715
-12.764
-12.7564
-12.7485
-12.7404
-12.7319
-12.7231
-12.714
-12.7047
-12.6951
-12.6853
-12.6755
-12.6656
-12.6559
-12.6465
-12.6375
-12.6291
-12.6215
-12.6148
-12.6094
-12.6055
-12.6032
-12.6029
-12.6047
-12.6089
-12.6155
-12.6257
-12.6414
-12.8979
-12.9088
-12.9156
-12.9193
-12.9207
-12.9199
-12.917
-12.9122
-12.9059
-12.8984
-12.8899
-12.8808
-12.8713
-12.8616
-12.8519
-12.8424
-12.8329
-12.8237
-12.8146
-12.8056
-12.7967
-12.7879
-12.7789
-12.7699
-12.7606
-12.751
-12.7411
-12.7308
-12.7202
-12.7091
-12.6977
-12.6859
-12.6738
-12.6616
-12.6493
-12.6371
-12.625
-12.6135
-12.6025
-12.5924
-12.5835
-12.576
-12.5702
-12.5666
-12.5653
-12.5668
-12.5712
-12.5786
-12.5905
-12.609
-12.927
-12.9409
-12.9494
-12.954
-12.9558
-12.9547
-12.9511
-12.9452
-12.9375
-12.9284
-12.9181
-12.9072
-12.8958
-12.8843
-12.8728
-12.8614
-12.8503
-12.8393
-12.8286
-12.8181
-12.8076
-12.7972
-12.7867
-12.776
-12.7651
-12.7539
-12.7423
-12.7302
-12.7177
-12.7047
-12.6911
-12.6771
-12.6628
-12.6481
-12.6332
-12.6182
-12.6034
-12.589
-12.5752
-12.5623
-12.5507
-12.5408
-12.5329
-12.5274
-12.5249
-12.5257
-12.5302
-12.5383
-12.5519
-12.5734
-12.9587
-12.9758
-12.9861
-12.9915
-12.9934
-12.9919
-12.9872
-12.9799
-12.9705
-12.9594
-12.9472
-12.9342
-12.9208
-12.9072
-12.8938
-12.8806
-12.8676
-12.855
-12.8426
-12.8305
-12.8185
-12.8065
-12.7945
-12.7824
-12.7699
-12.7571
-12.7438
-12.73
-12.7157
-12.7007
-12.685
-12.6688
-12.652
-12.6348
-12.6172
-12.5994
-12.5816
-12.564
-12.5471
-12.5311
-12.5164
-12.5036
-12.493
-12.4854
-12.4811
-12.4809
-12.4851
-12.4938
-12.5091
-12.5337
-12.9939
-13.0143
-13.0265
-13.0326
-13.0343
-13.0319
-13.0258
-13.0167
-13.0051
-12.9917
-12.977
-12.9617
-12.946
-12.9303
-12.9147
-12.8996
-12.8848
-12.8704
-12.8564
-12.8427
-12.8292
-12.8158
-12.8023
-12.7887
-12.7748
-12.7604
-12.7456
-12.7301
-12.7139
-12.697
-12.6793
-12.6609
-12.6417
-12.6218
-12.6013
-12.5805
-12.5595
-12.5386
-12.5181
-12.4985
-12.4803
-12.464
-12.4503
-12.4398
-12.4334
-12.4316
-12.4351
-12.4442
-12.4611
-12.4892
-13.0332
-13.0574
-13.0715
-13.078
-13.0793
-13.0755
-13.0674
-13.0557
-13.0414
-13.0252
-13.0077
-12.9896
-12.9714
-12.9532
-12.9355
-12.9182
-12.9015
-12.8854
-12.8697
-12.8545
-12.8395
-12.8247
-12.8098
-12.7948
-12.7795
-12.7638
-12.7474
-12.7303
-12.7124
-12.6937
-12.674
-12.6533
-12.6316
-12.6091
-12.5857
-12.5617
-12.5372
-12.5127
-12.4883
-12.4647
-12.4423
-12.422
-12.4043
-12.3904
-12.3809
-12.377
-12.3794
-12.3884
-12.407
-12.4389
-13.0778
-13.1063
-13.1222
-13.1289
-13.129
-13.1232
-13.1123
-13.0974
-13.0797
-13.06
-13.0392
-13.0179
-12.9967
-12.9759
-12.9557
-12.9362
-12.9175
-12.8996
-12.8823
-12.8655
-12.8492
-12.833
-12.8169
-12.8006
-12.784
-12.7669
-12.7491
-12.7306
-12.7111
-12.6905
-12.6689
-12.646
-12.6219
-12.5967
-12.5703
-12.543
-12.5149
-12.4863
-12.4577
-12.4295
-12.4024
-12.3772
-12.3548
-12.3364
-12.3231
-12.3162
-12.3166
-12.3253
-12.3454
-12.3814
-13.129
-13.1624
-13.1802
-13.1865
-13.1847
-13.1758
-13.1611
-13.142
-13.1199
-13.096
-13.0712
-13.0463
-13.0217
-12.9979
-12.9751
-12.9533
-12.9325
-12.9127
-12.8938
-12.8756
-12.8579
-12.8405
-12.8231
-12.8057
-12.7879
-12.7696
-12.7506
-12.7307
-12.7097
-12.6875
-12.664
-12.6391
-12.6127
-12.5847
-12.5554
-12.5246
-12.4926
-12.4598
-12.4264
-12.393
-12.3604
-12.3295
-12.3013
-12.2773
-12.2589
-12.2478
-12.2455
-12.253
-12.2745
-12.3152
-13.1886
-13.2278
-13.2473
-13.2523
-13.2474
-13.2341
-13.2142
-13.1897
-13.1622
-13.1331
-13.1035
-13.0743
-13.046
-13.0189
-12.9932
-12.9689
-12.9461
-12.9245
-12.9039
-12.8843
-12.8653
-12.8468
-12.8284
-12.8099
-12.7911
-12.7718
-12.7516
-12.7305
-12.7082
-12.6846
-12.6594
-12.6325
-12.6038
-12.5733
-12.5409
-12.5067
-12.4707
-12.4332
-12.3947
-12.3555
-12.3166
-12.2789
-12.2437
-12.2126
-12.1876
-12.1708
-12.1642
-12.1696
-12.1922
-12.2384
-13.259
-13.305
-13.3258
-13.3283
-13.3186
-13.299
-13.2721
-13.2404
-13.2061
-13.1708
-13.1356
-13.1015
-13.0689
-13.0382
-13.0095
-12.9827
-12.9577
-12.9343
-12.9123
-12.8914
-12.8713
-12.8517
-12.8324
-12.8131
-12.7934
-12.7732
-12.7522
-12.7301
-12.7067
-12.6817
-12.655
-12.6264
-12.5956
-12.5626
-12.5272
-12.4895
-12.4494
-12.4071
-12.363
-12.3174
-12.2713
-12.2256
-12.1818
-12.1419
-12.1081
-12.0835
-12.0707
-12.0724
-12.0955
-12.148
-13.3436
-13.3976
-13.419
-13.4169
-13.3998
-13.3713
-13.3349
-13.2941
-13.2513
-13.2084
-13.1667
-13.127
-13.0898
-13.0553
-13.0234
-12.9941
-12.967
-12.9419
-12.9185
-12.8964
-12.8754
-12.855
-12.835
-12.815
-12.7947
-12.7739
-12.7521
-12.7293
-12.705
-12.6789
-12.651
-12.6208
-12.5882
-12.5528
-12.5147
-12.4735
-12.4293
-12.382
-12.3319
-12.2793
-12.225
-12.1699
-12.1158
-12.0647
-12.0196
-11.9842
-11.9623
-11.9579
-11.9805
-12.0405
-13.4473
-13.5109
-13.5311
-13.5211
-13.4927
-13.4515
-13.4026
-13.35
-13.2967
-13.2449
-13.1957
-13.1499
-13.1078
-13.0692
-13.0342
-13.0024
-12.9733
-12.9467
-12.9221
-12.8991
-12.8774
-12.8564
-12.8359
-12.8155
-12.7948
-12.7736
-12.7514
-12.7281
-12.7031
-12.6764
-12.6474
-12.616
-12.5818
-12.5444
-12.5037
-12.4592
-12.4109
-12.3586
-12.3023
-12.2421
-12.1786
-12.1128
-12.0463
-11.9813
-11.9213
-11.871
-11.8357
-11.8215
-11.8415
-11.9102
-13.5777
-13.6524
-13.6681
-13.6443
-13.5989
-13.5401
-13.4744
-13.4069
-13.3411
-13.2789
-13.2214
-13.1689
-13.1216
-13.0792
-13.0411
-13.007
-12.9762
-12.9484
-12.9229
-12.8992
-12.877
-12.8558
-12.8351
-12.8145
-12.7937
-12.7724
-12.7501
-12.7265
-12.7013
-12.6741
-12.6445
-12.6122
-12.5767
-12.5377
-12.4947
-12.4474
-12.3953
-12.338
-12.2753
-12.2072
-12.1337
-12.0557
-11.9743
-11.8921
-11.8129
-11.7422
-11.6873
-11.6569
-11.6704
-11.7489
-13.7473
-13.8332
-13.8375
-13.7909
-13.7198
-13.6363
-13.5486
-13.4628
-13.3821
-13.3083
-13.2418
-13.1825
-13.1302
-13.084
-13.0432
-13.0072
-12.9751
-12.9464
-12.9204
-12.8965
-12.8742
-12.853
-12.8324
-12.812
-12.7915
-12.7704
-12.7483
-12.7248
-12.6997
-12.6724
-12.6426
-12.6098
-12.5735
-12.5333
-12.4886
-12.4388
-12.3832
-12.3214
-12.2526
-12.1763
-12.0923
-12.0006
-11.9022
-11.799
-11.6949
-11.5964
-11.5125
-11.456
-11.4553
-11.5431
-13.9773
-14.0702
-14.0494
-13.9647
-13.8554
-13.7379
-13.6223
-13.5143
-13.4167
-13.3303
-13.2547
-13.1889
-13.1319
-13.0826
-13.0397
-13.0024
-12.9696
-12.9406
-12.9145
-12.8908
-12.8688
-12.848
-12.8279
-12.8081
-12.7881
-12.7676
-12.746
-12.7231
-12.6984
-12.6715
-12.6418
-12.6091
-12.5726
-12.5317
-12.4859
-12.4343
-12.3761
-12.3103
-12.2359
-12.1519
-12.0571
-11.951
-11.8334
-11.7053
-11.5698
-11.4335
-11.3071
-11.2083
-11.1784
-11.2699
-14.3069
-14.3889
-14.3155
-14.1681
-14.0028
-13.8399
-13.6896
-13.5561
-13.4405
-13.3415
-13.2573
-13.1859
-13.1253
-13.0738
-13.0298
-12.992
-12.9592
-12.9305
-12.905
-12.882
-12.8608
-12.8409
-12.8218
-12.8029
-12.7839
-12.7643
-12.7437
-12.7217
-12.6978
-12.6717
-12.6428
-12.6106
-12.5744
-12.5337
-12.4876
-12.4351
-12.3752
-12.3066
-12.2277
-12.1369
-12.0322
-11.9116
-11.7735
-11.6169
-11.4429
-11.2566
-11.0688
-10.9014
-10.813
-10.8876
-14.8084
-14.827
-14.6474
-14.3987
-14.1534
-13.9323
-13.7413
-13.5808
-13.4475
-13.3374
-13.2465
-13.1713
-13.1089
-13.0567
-13.0128
-12.9756
-12.9438
-12.9162
-12.8919
-12.8702
-12.8504
-12.8319
-12.8141
-12.7966
-12.7789
-12.7607
-12.7414
-12.7208
-12.6982
-12.6734
-12.6458
-12.6147
-12.5797
-12.5398
-12.4944
-12.4422
-12.3819
-12.312
-12.2304
-12.1348
-12.022
-11.8886
-11.7304
-11.5436
-11.325
-11.0749
-10.8003
-10.5236
-10.3199
-10.3208
-15.6126
-15.4349
-15.0528
-14.6471
-14.292
-14
-13.7656
-13.5794
-13.4317
-13.314
-13.2197
-13.1436
-13.0816
-13.0307
-12.9885
-12.9532
-12.9234
-12.8978
-12.8755
-12.8558
-12.8379
-12.8212
-12.8052
-12.7895
-12.7736
-12.7571
-12.7396
-12.7207
-12.7
-12.6769
-12.6511
-12.6218
-12.5886
-12.5506
-12.5069
-12.4562
-12.3972
-12.3281
-12.2462
-12.1487
-12.0313
-11.8886
-11.7138
-11.4982
-11.2318
-10.9048
-10.5119
-10.067
-9.64812
-9.43499
-17.0165
-16.2531
-15.5076
-14.8799
-14.3879
-14.0194
-13.7461
-13.5418
-13.3869
-13.2679
-13.1752
-13.1019
-13.0434
-12.996
-12.9573
-12.9253
-12.8986
-12.8759
-12.8563
-12.8392
-12.8237
-12.8093
-12.7956
-12.7821
-12.7683
-12.754
-12.7386
-12.7218
-12.7032
-12.6824
-12.6589
-12.6321
-12.6014
-12.5661
-12.5252
-12.4776
-12.4217
-12.3556
-12.2766
-12.1812
-12.0644
-11.919
-11.7352
-11.4986
-11.1892
-10.7793
-10.2392
-9.55837
-8.75752
-7.92525
-19.8499
-17.2509
-15.8309
-14.943
-14.3335
-13.9202
-13.6381
-13.4393
-13.2946
-13.1865
-13.1039
-13.0398
-12.9891
-12.9486
-12.9159
-12.8892
-12.8671
-12.8486
-12.8329
-12.8192
-12.8069
-12.7956
-12.7848
-12.7741
-12.7631
-12.7514
-12.7387
-12.7246
-12.7089
-12.691
-12.6706
-12.6471
-12.62
-12.5887
-12.5522
-12.5096
-12.4594
-12.3998
-12.3283
-12.2414
-12.134
-11.9986
-11.8235
-11.5905
-11.2692
-10.8095
-10.1419
-9.18198
-7.67539
-4.95553
-24.7187
-18.3339
-15.6669
-14.5663
-13.9669
-13.6094
-13.3868
-13.2381
-13.1323
-13.0539
-12.9942
-12.9478
-12.9112
-12.8822
-12.859
-12.8403
-12.8252
-12.8128
-12.8024
-12.7936
-12.7859
-12.7787
-12.7718
-12.7649
-12.7575
-12.7494
-12.7404
-12.73
-12.718
-12.7041
-12.688
-12.6692
-12.6472
-12.6217
-12.5918
-12.5569
-12.5158
-12.4673
-12.4094
-12.3397
-12.2544
-12.1478
-12.0105
-11.8262
-11.5631
-11.1572
-10.4922
-9.29666
-6.51175
9.97051e-05
)
;

boundaryField
{
    movingWallTop
    {
        type            zeroGradient;
    }
    movingWallBottom
    {
        type            zeroGradient;
    }
    fixedWalls
    {
        type            zeroGradient;
    }
    frontAndBack
    {
        type            empty;
    }
}


// ************************************************************************* //
