/*--------------------------------*- C++ -*----------------------------------*\
  =========                 |
  \\      /  F ield         | OpenFOAM: The Open Source CFD Toolbox
   \\    /   O peration     | Website:  https://openfoam.org
    \\  /    A nd           | Version:  7
     \\/     M anipulation  |
\*---------------------------------------------------------------------------*/
FoamFile
{
    version     2.0;
    format      ascii;
    class       surfaceScalarField;
    location    "0.0592";
    object      phi;
}
// * * * * * * * * * * * * * * * * * * * * * * * * * * * * * * * * * * * * * //

dimensions      [0 3 -1 0 0 0 0];

internalField   nonuniform List<scalar> 
4900
(
1.09565e-09
-1.10301e-09
2.21473e-09
-1.11904e-09
2.24901e-09
-3.42306e-11
8.25971e-10
1.42299e-09
-2.13346e-09
2.95944e-09
-6.54516e-09
4.41168e-09
-1.22485e-08
5.70335e-09
-1.9049e-08
6.8005e-09
-2.67401e-08
7.69101e-09
-3.51138e-08
8.37376e-09
-4.39675e-08
8.85361e-09
-5.31065e-08
9.13892e-09
-6.23466e-08
9.24007e-09
-7.15152e-08
9.16864e-09
-8.04522e-08
8.93696e-09
-8.90099e-08
8.55773e-09
-9.70538e-08
8.04386e-09
-1.04462e-07
7.40832e-09
-1.11126e-07
6.66413e-09
-1.16951e-07
5.82432e-09
-1.21853e-07
4.90196e-09
-1.25763e-07
3.91026e-09
-1.28625e-07
2.86259e-09
-1.30398e-07
1.77257e-09
-1.31052e-07
6.54124e-10
-1.30574e-07
-4.78422e-10
-1.28963e-07
-1.61031e-09
-1.26237e-07
-2.72631e-09
-1.22426e-07
-3.81075e-09
-1.17579e-07
-4.84752e-09
-1.11759e-07
-5.82014e-09
-1.05047e-07
-6.71186e-09
-9.75408e-08
-7.50584e-09
-8.93555e-08
-8.18528e-09
-8.06218e-08
-8.73369e-09
-7.14867e-08
-9.1351e-09
-6.21122e-08
-9.37441e-09
-5.26745e-08
-9.43766e-09
-4.33621e-08
-9.31246e-09
-3.43736e-08
-8.98841e-09
-2.59159e-08
-8.45773e-09
-1.81998e-08
-7.71602e-09
-1.14361e-08
-6.76369e-09
-5.82785e-09
-5.60827e-09
-1.55851e-09
-4.26933e-09
1.23094e-09
-2.78945e-09
2.48354e-09
-1.2526e-09
2.29317e-09
1.90375e-10
1.0985e-09
1.19467e-09
1.09851e-09
1.12682e-09
-2.22981e-09
1.22095e-09
-1.21317e-09
-1.29661e-09
2.48334e-09
-7.17845e-09
7.30478e-09
-1.66392e-08
1.24201e-08
-2.9569e-08
1.73415e-08
-4.56605e-08
2.17949e-08
-6.44937e-08
2.56337e-08
-8.55889e-08
2.87863e-08
-1.0844e-07
3.12253e-08
-1.32538e-07
3.2951e-08
-1.5738e-07
3.39809e-08
-1.82483e-07
3.43437e-08
-2.0739e-07
3.40755e-08
-2.3167e-07
3.32168e-08
-2.54924e-07
3.18114e-08
-2.76785e-07
2.99049e-08
-2.9692e-07
2.75442e-08
-3.15033e-07
2.47771e-08
-3.30861e-07
2.16519e-08
-3.44177e-07
1.82178e-08
-3.54791e-07
1.45243e-08
-3.6255e-07
1.06221e-08
-3.6734e-07
6.56256e-09
-3.69085e-07
2.39856e-09
-3.67747e-07
-1.81579e-09
-3.63333e-07
-6.02488e-09
-3.55887e-07
-1.01715e-08
-3.45501e-07
-1.41971e-08
-3.32307e-07
-1.80417e-08
-3.16483e-07
-2.16441e-08
-2.98252e-07
-2.49428e-08
-2.77882e-07
-2.78761e-08
-2.55684e-07
-3.0383e-08
-2.32014e-07
-3.24041e-08
-2.07266e-07
-3.38827e-08
-1.81875e-07
-3.47658e-08
-1.56307e-07
-3.50059e-08
-1.31057e-07
-3.45621e-08
-1.06643e-07
-3.34029e-08
-8.35917e-08
-3.15085e-08
-6.2433e-08
-2.88748e-08
-4.36779e-08
-2.55188e-08
-2.77973e-08
-2.14889e-08
-1.51867e-08
-1.68799e-08
-6.11416e-09
-1.1862e-08
-6.36797e-10
-6.72997e-09
1.54113e-09
-1.98755e-09
1.2059e-09
1.52992e-09
2.30441e-09
9.40654e-11
-2.32382e-09
-2.37882e-09
1.25962e-09
-8.94326e-09
9.04776e-09
-2.03627e-08
1.87242e-08
-3.68654e-08
2.89229e-08
-5.83043e-08
3.87804e-08
-8.42733e-08
4.77638e-08
-1.142e-07
5.55608e-08
-1.47414e-07
6.19998e-08
-1.83189e-07
6.70007e-08
-2.20782e-07
7.05434e-08
-2.59449e-07
7.26482e-08
-2.98468e-07
7.33628e-08
-3.37146e-07
7.27533e-08
-3.74828e-07
7.08987e-08
-4.10903e-07
6.78862e-08
-4.44807e-07
6.38094e-08
-4.76029e-07
5.87655e-08
-5.04107e-07
5.28549e-08
-5.28635e-07
4.61802e-08
-5.49263e-07
3.88458e-08
-5.65697e-07
3.09582e-08
-5.777e-07
2.26256e-08
-5.85097e-07
1.39591e-08
-5.8777e-07
5.0719e-09
-5.85666e-07
-3.91971e-09
-5.78794e-07
-1.28965e-08
-5.6723e-07
-2.17361e-08
-5.51113e-07
-3.03135e-08
-5.30654e-07
-3.85011e-08
-5.06129e-07
-4.61695e-08
-4.77883e-07
-5.31886e-08
-4.4633e-07
-5.94288e-08
-4.1195e-07
-6.47627e-08
-3.75288e-07
-6.90668e-08
-3.36946e-07
-7.22243e-08
-2.97584e-07
-7.41275e-08
-2.57909e-07
-7.46815e-08
-2.18663e-07
-7.38074e-08
-1.80618e-07
-7.14479e-08
-1.44554e-07
-6.7573e-08
-1.1124e-07
-6.21887e-08
-8.14096e-08
-5.53492e-08
-5.57234e-08
-4.7175e-08
-3.47214e-08
-3.78819e-08
-1.87565e-08
-2.78268e-08
-7.90449e-09
-1.7582e-08
-1.85244e-09
-8.03959e-09
2.52146e-10
-5.74658e-10
2.55656e-09
-1.32469e-09
-9.99127e-10
-7.12544e-09
7.06036e-09
-1.85514e-08
2.04737e-08
-3.61754e-08
3.63483e-08
-6.01168e-08
5.28642e-08
-9.01325e-08
6.87962e-08
-1.25711e-07
8.3342e-08
-1.66151e-07
9.6001e-08
-2.1063e-07
1.06479e-07
-2.58252e-07
1.14623e-07
-3.08089e-07
1.2038e-07
-3.59205e-07
1.23765e-07
-4.10684e-07
1.24842e-07
-4.61641e-07
1.2371e-07
-5.11235e-07
1.20492e-07
-5.58677e-07
1.15329e-07
-6.03239e-07
1.08371e-07
-6.44255e-07
9.97816e-08
-6.81127e-07
8.97265e-08
-7.13325e-07
7.83785e-08
-7.40393e-07
6.5914e-08
-7.61948e-07
5.25132e-08
-7.77683e-07
3.83606e-08
-7.87369e-07
2.36444e-08
-7.90854e-07
8.55743e-09
-7.88071e-07
-6.70263e-09
-7.79034e-07
-2.19333e-08
-7.63843e-07
-3.69274e-08
-7.42683e-07
-5.14733e-08
-7.15829e-07
-6.53555e-08
-6.83642e-07
-7.83565e-08
-6.46573e-07
-9.0258e-08
-6.05158e-07
-1.00843e-07
-5.60021e-07
-1.099e-07
-5.11863e-07
-1.17224e-07
-4.61464e-07
-1.22624e-07
-4.09668e-07
-1.25923e-07
-3.5738e-07
-1.2697e-07
-3.05546e-07
-1.25642e-07
-2.5514e-07
-1.21854e-07
-2.07144e-07
-1.15569e-07
-1.62519e-07
-1.06814e-07
-1.22173e-07
-9.56955e-08
-8.69177e-08
-8.24302e-08
-5.74185e-08
-6.73812e-08
-3.41269e-08
-5.11184e-08
-1.7203e-08
-3.45059e-08
-6.42717e-09
-1.88154e-08
-1.11838e-09
-5.88343e-09
1.43819e-09
-2.84185e-09
1.8427e-09
-1.22916e-08
1.65101e-08
-2.8982e-08
3.71642e-08
-5.31804e-08
6.05466e-08
-8.47999e-08
8.44838e-08
-1.23445e-07
1.07441e-07
-1.68471e-07
1.28368e-07
-2.19048e-07
1.46578e-07
-2.74216e-07
1.61646e-07
-3.32933e-07
1.7334e-07
-3.94118e-07
1.81565e-07
-4.56678e-07
1.86325e-07
-5.19535e-07
1.877e-07
-5.81647e-07
1.85822e-07
-6.42016e-07
1.80862e-07
-6.99708e-07
1.73021e-07
-7.53854e-07
1.62517e-07
-8.0366e-07
1.49587e-07
-8.48409e-07
1.34476e-07
-8.8747e-07
1.17439e-07
-9.20296e-07
9.87394e-08
-9.46427e-07
7.86446e-08
-9.65497e-07
5.74302e-08
-9.7723e-07
3.53779e-08
-9.81449e-07
1.2776e-08
-9.78071e-07
-1.00803e-08
-9.67116e-07
-3.28886e-08
-9.48703e-07
-5.53398e-08
-9.23058e-07
-7.71188e-08
-8.90508e-07
-9.79056e-08
-8.51487e-07
-1.17377e-07
-8.06534e-07
-1.35211e-07
-7.56289e-07
-1.51087e-07
-7.01496e-07
-1.64694e-07
-6.42989e-07
-1.75731e-07
-5.81692e-07
-1.8392e-07
-5.18607e-07
-1.89008e-07
-4.54801e-07
-1.90776e-07
-3.91388e-07
-1.89054e-07
-3.29514e-07
-1.83727e-07
-2.70327e-07
-1.74756e-07
-2.14947e-07
-1.62193e-07
-1.64434e-07
-1.46208e-07
-1.1974e-07
-1.27125e-07
-8.16585e-08
-1.05463e-07
-5.07697e-08
-8.20072e-08
-2.73769e-08
-5.78987e-08
-1.14508e-08
-3.47415e-08
-2.58845e-09
-1.47458e-08
-1.15025e-09
-4.33711e-09
6.17983e-09
-1.75034e-08
2.96764e-08
-3.96012e-08
5.9262e-08
-7.05297e-08
9.14751e-08
-1.09937e-07
1.23891e-07
-1.57226e-07
1.54731e-07
-2.11591e-07
1.82733e-07
-2.72057e-07
2.07043e-07
-3.37526e-07
2.27116e-07
-4.06823e-07
2.42637e-07
-4.78728e-07
2.5347e-07
-5.52013e-07
2.5961e-07
-6.25464e-07
2.6115e-07
-6.97902e-07
2.58259e-07
-7.68201e-07
2.51162e-07
-8.35302e-07
2.40121e-07
-8.98218e-07
2.25433e-07
-9.56046e-07
2.07416e-07
-1.00797e-06
1.86404e-07
-1.05328e-06
1.62745e-07
-1.09134e-06
1.368e-07
-1.12163e-06
1.08938e-07
-1.14374e-06
7.95376e-08
-1.15735e-06
4.89862e-08
-1.16226e-06
1.76813e-08
-1.15837e-06
-1.39703e-08
-1.1457e-06
-4.55526e-08
-1.1244e-06
-7.66405e-08
-1.09472e-06
-1.06801e-07
-1.05703e-06
-1.35596e-07
-1.01182e-06
-1.62582e-07
-9.59717e-07
-1.87318e-07
-9.01436e-07
-2.09368e-07
-8.37822e-07
-2.28308e-07
-7.69823e-07
-2.4373e-07
-6.98485e-07
-2.55259e-07
-6.24941e-07
-2.62552e-07
-5.50396e-07
-2.65321e-07
-4.7611e-07
-2.6334e-07
-4.03373e-07
-2.56464e-07
-3.3348e-07
-2.44649e-07
-2.67699e-07
-2.27975e-07
-2.0723e-07
-2.06677e-07
-1.53169e-07
-1.81186e-07
-1.06454e-07
-1.52177e-07
-6.78268e-08
-1.20634e-07
-3.77823e-08
-8.79432e-08
-1.6541e-08
-5.59828e-08
-4.04336e-09
-2.72434e-08
-5.1936e-09
-5.76429e-09
1.19442e-08
-2.25911e-08
4.65032e-08
-5.00868e-08
8.67577e-08
-8.77658e-08
1.29154e-07
-1.34978e-07
1.71103e-07
-1.90892e-07
2.10646e-07
-2.54513e-07
2.46353e-07
-3.24702e-07
2.77232e-07
-4.00218e-07
3.02631e-07
-4.79748e-07
3.22168e-07
-5.61946e-07
3.35668e-07
-6.45457e-07
3.4312e-07
-7.28944e-07
3.44638e-07
-8.11115e-07
3.4043e-07
-8.90729e-07
3.30776e-07
-9.66621e-07
3.16013e-07
-1.03771e-06
2.96518e-07
-1.10299e-06
2.72698e-07
-1.16157e-06
2.44988e-07
-1.21266e-06
2.13836e-07
-1.25557e-06
1.7971e-07
-1.28972e-06
1.43091e-07
-1.31466e-06
1.0447e-07
-1.33002e-06
6.43525e-08
-1.3356e-06
2.3256e-08
-1.33128e-06
-1.82902e-08
-1.31709e-06
-5.97449e-08
-1.29317e-06
-1.00555e-07
-1.25981e-06
-1.40159e-07
-1.21742e-06
-1.77986e-07
-1.16654e-06
-2.13463e-07
-1.10784e-06
-2.46018e-07
-1.04212e-06
-2.75087e-07
-9.70311e-07
-3.0012e-07
-8.93447e-07
-3.20594e-07
-8.12682e-07
-3.36024e-07
-7.29262e-07
-3.45973e-07
-6.44512e-07
-3.50071e-07
-5.59821e-07
-3.48032e-07
-4.76611e-07
-3.39674e-07
-3.96314e-07
-3.24946e-07
-3.20337e-07
-3.03951e-07
-2.50029e-07
-2.76986e-07
-1.86635e-07
-2.4458e-07
-1.31263e-07
-2.07549e-07
-8.48424e-08
-1.67055e-07
-4.80953e-08
-1.2469e-07
-2.15256e-08
-8.25525e-08
-5.43544e-09
-4.33336e-08
-1.0629e-08
-7.11478e-09
1.90589e-08
-2.74973e-08
6.68857e-08
-6.03082e-08
1.19569e-07
-1.04685e-07
1.7353e-07
-1.59665e-07
2.26083e-07
-2.24165e-07
2.75145e-07
-2.96975e-07
3.19163e-07
-3.76778e-07
3.57036e-07
-4.62177e-07
3.8803e-07
-5.51718e-07
4.11709e-07
-6.43926e-07
4.27876e-07
-7.37327e-07
4.36521e-07
-8.30472e-07
4.37783e-07
-9.2196e-07
4.31918e-07
-1.01046e-06
4.19272e-07
-1.0947e-06
4.00256e-07
-1.17352e-06
3.75338e-07
-1.24584e-06
3.45024e-07
-1.31071e-06
3.0985e-07
-1.36725e-06
2.70379e-07
-1.41473e-06
2.27192e-07
-1.45253e-06
1.80888e-07
-1.48014e-06
1.32083e-07
-1.4972e-06
8.14079e-08
-1.50345e-06
2.95078e-08
-1.49878e-06
-2.29557e-08
-1.48322e-06
-7.53067e-08
-1.45692e-06
-1.26855e-07
-1.42018e-06
-1.76899e-07
-1.37344e-06
-2.24729e-07
-1.31727e-06
-2.69628e-07
-1.25241e-06
-3.10884e-07
-1.1797e-06
-3.47794e-07
-1.10015e-06
-3.79675e-07
-1.01487e-06
-4.05874e-07
-9.251e-07
-4.25789e-07
-8.32196e-07
-4.38876e-07
-7.37589e-07
-4.44678e-07
-6.42784e-07
-4.42837e-07
-5.49328e-07
-4.33129e-07
-4.5879e-07
-4.15484e-07
-3.72719e-07
-3.90022e-07
-2.92616e-07
-3.57089e-07
-2.19896e-07
-3.17301e-07
-1.55851e-07
-2.71593e-07
-1.01625e-07
-2.21281e-07
-5.81908e-08
-1.68125e-07
-2.63485e-08
-1.14395e-07
-6.75518e-09
-6.29269e-08
-1.73842e-08
-8.39669e-09
2.74556e-08
-3.22229e-08
9.07119e-08
-7.02432e-08
1.57589e-07
-1.21236e-07
2.24523e-07
-1.83928e-07
2.88775e-07
-2.56967e-07
3.48184e-07
-3.38917e-07
4.01114e-07
-4.28268e-07
4.46387e-07
-5.23453e-07
4.83214e-07
-6.22871e-07
5.11127e-07
-7.24915e-07
5.29919e-07
-8.27991e-07
5.39597e-07
-9.30544e-07
5.40336e-07
-1.03107e-06
5.32449e-07
-1.12816e-06
5.16353e-07
-1.22045e-06
4.92546e-07
-1.3067e-06
4.61592e-07
-1.38578e-06
4.24103e-07
-1.45666e-06
3.80726e-07
-1.51842e-06
3.32143e-07
-1.57028e-06
2.79056e-07
-1.61159e-06
2.2219e-07
-1.64179e-06
1.62292e-07
-1.66051e-06
1.00123e-07
-1.66747e-06
3.64663e-08
-1.66254e-06
-2.78787e-08
-1.64576e-06
-9.20937e-08
-1.61727e-06
-1.55344e-07
-1.57739e-06
-2.16781e-07
-1.52657e-06
-2.75544e-07
-1.46543e-06
-3.30768e-07
-1.39472e-06
-3.8159e-07
-1.31536e-06
-4.27158e-07
-1.22839e-06
-4.66644e-07
-1.13501e-06
-4.99259e-07
-1.03653e-06
-5.24268e-07
-9.34391e-07
-5.41014e-07
-8.30132e-07
-5.48936e-07
-7.25369e-07
-5.476e-07
-6.21776e-07
-5.36722e-07
-5.21056e-07
-5.16205e-07
-4.24908e-07
-4.8617e-07
-3.34997e-07
-4.46999e-07
-2.52923e-07
-3.99375e-07
-1.80182e-07
-3.44334e-07
-1.18148e-07
-2.83314e-07
-6.80594e-08
-2.18214e-07
-3.10159e-08
-1.51438e-07
-8.01181e-09
-8.59311e-08
-2.5396e-08
-9.62431e-09
3.708e-08
-3.67968e-08
1.17884e-07
-7.99282e-08
2.0072e-07
-1.37458e-07
2.82053e-07
-2.07807e-07
3.59124e-07
-2.89349e-07
4.29727e-07
-3.80413e-07
4.92177e-07
-4.79279e-07
5.45253e-07
-5.84203e-07
5.88139e-07
-6.9343e-07
6.20353e-07
-8.05213e-07
6.41702e-07
-9.17839e-07
6.52224e-07
-1.02965e-06
6.52145e-07
-1.13904e-06
6.41846e-07
-1.24452e-06
6.21826e-07
-1.34465e-06
5.92681e-07
-1.43814e-06
5.55078e-07
-1.52378e-06
5.09741e-07
-1.60049e-06
4.57438e-07
-1.66732e-06
3.98974e-07
-1.72344e-06
3.3518e-07
-1.76817e-06
2.66913e-07
-1.80093e-06
1.95053e-07
-1.8213e-06
1.20501e-07
-1.82902e-06
4.41802e-08
-1.82393e-06
-3.29652e-08
-1.80606e-06
-1.0997e-07
-1.77555e-06
-1.85848e-07
-1.73274e-06
-2.59598e-07
-1.67808e-06
-3.30202e-07
-1.61221e-06
-3.96638e-07
-1.53591e-06
-4.57883e-07
-1.45014e-06
-5.12929e-07
-1.356e-06
-5.60791e-07
-1.25472e-06
-6.00533e-07
-1.14771e-06
-6.31278e-07
-1.03649e-06
-6.52239e-07
-9.22679e-07
-6.62744e-07
-8.08019e-07
-6.62261e-07
-6.94304e-07
-6.50437e-07
-5.8338e-07
-6.27129e-07
-4.77106e-07
-5.92444e-07
-3.77324e-07
-5.46781e-07
-2.85829e-07
-4.9087e-07
-2.04341e-07
-4.25822e-07
-1.34481e-07
-3.53175e-07
-7.77555e-08
-2.74939e-07
-3.55653e-08
-1.93628e-07
-9.2219e-09
-1.12274e-07
-3.46179e-08
-1.08136e-08
4.78936e-08
-4.12606e-08
1.48331e-07
-8.9429e-08
2.48889e-07
-1.53439e-07
3.46063e-07
-2.31408e-07
4.37093e-07
-3.21438e-07
5.19757e-07
-4.2161e-07
5.92349e-07
-5.29992e-07
6.53635e-07
-6.4465e-07
7.02796e-07
-7.63663e-07
7.39367e-07
-8.85145e-07
7.63184e-07
-1.00726e-06
7.74338e-07
-1.12824e-06
7.73124e-07
-1.2464e-06
7.60003e-07
-1.36014e-06
7.35572e-07
-1.46799e-06
7.0053e-07
-1.56857e-06
6.5566e-07
-1.66064e-06
6.01808e-07
-1.74307e-06
5.39868e-07
-1.81487e-06
4.70774e-07
-1.87518e-06
3.95491e-07
-1.92328e-06
3.15013e-07
-1.95859e-06
2.30358e-07
-1.98066e-06
1.42569e-07
-1.98919e-06
5.27146e-08
-1.98404e-06
-3.81144e-08
-1.96521e-06
-1.28801e-07
-1.93285e-06
-2.18205e-07
-1.88729e-06
-3.05164e-07
-1.82899e-06
-3.88501e-07
-1.7586e-06
-4.67029e-07
-1.67693e-06
-5.39557e-07
-1.58494e-06
-6.04911e-07
-1.48379e-06
-6.61941e-07
-1.37478e-06
-7.0955e-07
-1.25935e-06
-7.46707e-07
-1.13911e-06
-7.72481e-07
-1.01578e-06
-7.8607e-07
-8.91208e-07
-7.86832e-07
-7.67321e-07
-7.74324e-07
-6.4611e-07
-7.4834e-07
-5.29604e-07
-7.0895e-07
-4.19836e-07
-6.56549e-07
-3.18814e-07
-5.91892e-07
-2.28491e-07
-5.16145e-07
-1.50747e-07
-4.3092e-07
-8.73677e-08
-3.38318e-07
-4.0049e-08
-2.40947e-07
-1.04045e-08
-1.41919e-07
-4.50224e-08
-1.19803e-08
5.9874e-08
-4.56593e-08
1.8201e-07
-9.88236e-08
3.02053e-07
-1.69286e-07
4.16525e-07
-2.54868e-07
5.22675e-07
-3.53397e-07
6.18285e-07
-4.62702e-07
7.01654e-07
-5.80628e-07
7.71561e-07
-7.05043e-07
8.27211e-07
-8.33857e-07
8.68181e-07
-9.65035e-07
8.94363e-07
-1.09662e-06
9.05919e-07
-1.22672e-06
9.03231e-07
-1.35358e-06
8.86861e-07
-1.47552e-06
8.57514e-07
-1.591e-06
8.16008e-07
-1.69859e-06
7.63251e-07
-1.797e-06
7.00219e-07
-1.88507e-06
6.27939e-07
-1.96178e-06
5.47481e-07
-2.02624e-06
4.59949e-07
-2.0777e-06
3.66476e-07
-2.11557e-06
2.68223e-07
-2.13937e-06
1.66375e-07
-2.14881e-06
6.21485e-08
-2.14371e-06
-4.32165e-08
-2.12406e-06
-1.48449e-07
-2.09001e-06
-2.52252e-07
-2.04187e-06
-3.53302e-07
-1.98012e-06
-4.50255e-07
-1.9054e-06
-5.41751e-07
-1.81852e-06
-6.26429e-07
-1.7205e-06
-7.02938e-07
-1.61249e-06
-7.69953e-07
-1.49583e-06
-8.26201e-07
-1.37206e-06
-8.70484e-07
-1.24283e-06
-9.01711e-07
-1.10996e-06
-9.18932e-07
-9.75422e-07
-9.21375e-07
-8.41262e-07
-9.08484e-07
-7.09633e-07
-8.79968e-07
-5.82743e-07
-8.3584e-07
-4.62829e-07
-7.76464e-07
-3.52123e-07
-7.02598e-07
-2.52831e-07
-6.15437e-07
-1.67099e-07
-5.16651e-07
-9.70007e-08
-4.08416e-07
-4.4525e-08
-2.93423e-07
-1.15789e-08
-1.74865e-07
-5.66013e-08
-1.31389e-08
7.3013e-08
-5.00376e-08
2.18909e-07
-1.08193e-07
3.60208e-07
-1.85117e-07
4.9345e-07
-2.7834e-07
6.15897e-07
-3.85407e-07
7.25353e-07
-5.03895e-07
8.20142e-07
-6.31417e-07
8.99083e-07
-7.65638e-07
9.61432e-07
-9.04289e-07
1.00683e-06
-1.04518e-06
1.03526e-06
-1.18623e-06
1.04697e-06
-1.32545e-06
1.04245e-06
-1.46097e-06
1.02238e-06
-1.59106e-06
9.876e-07
-1.7141e-06
9.39052e-07
-1.82863e-06
8.77782e-07
-1.93332e-06
8.04906e-07
-2.02697e-06
7.21592e-07
-2.10854e-06
6.29052e-07
-2.17712e-06
5.2853e-07
-2.23195e-06
4.21304e-07
-2.2724e-06
3.08676e-07
-2.29801e-06
1.91978e-07
-2.30843e-06
7.25717e-08
-2.30349e-06
-4.81524e-08
-2.28317e-06
-1.6877e-07
-2.2476e-06
-2.87825e-07
-2.19707e-06
-4.0383e-07
-2.13206e-06
-5.15272e-07
-2.05319e-06
-6.20617e-07
-1.9613e-06
-7.18322e-07
-1.85738e-06
-8.06851e-07
-1.74264e-06
-8.84694e-07
-1.61845e-06
-9.5039e-07
-1.48638e-06
-1.00256e-06
-1.34817e-06
-1.03992e-06
-1.20573e-06
-1.06137e-06
-1.06113e-06
-1.06598e-06
-9.16562e-07
-1.05305e-06
-7.74348e-07
-1.02218e-06
-6.36882e-07
-9.73305e-07
-5.06617e-07
-9.06729e-07
-3.86027e-07
-8.23188e-07
-2.77579e-07
-7.23885e-07
-1.83702e-07
-6.10528e-07
-1.06764e-07
-4.85354e-07
-4.90525e-08
-3.51135e-07
-1.27636e-08
-2.11154e-07
-6.93649e-08
-1.43025e-08
8.73155e-08
-5.44373e-08
2.59043e-07
-1.17614e-07
4.23385e-07
-2.01048e-07
5.76883e-07
-3.0197e-07
7.1682e-07
-4.17649e-07
8.41031e-07
-5.45396e-07
9.47889e-07
-6.82587e-07
1.03627e-06
-8.26676e-07
1.10552e-06
-9.75213e-07
1.15537e-06
-1.12585e-06
1.1859e-06
-1.27637e-06
1.19749e-06
-1.42469e-06
1.19076e-06
-1.56884e-06
1.16653e-06
-1.70701e-06
1.12578e-06
-1.83756e-06
1.0696e-06
-1.95896e-06
9.99185e-07
-2.06986e-06
9.15803e-07
-2.16903e-06
8.20769e-07
-2.25542e-06
7.15442e-07
-2.32811e-06
6.01212e-07
-2.3863e-06
4.79499e-07
-2.42938e-06
3.51751e-07
-2.45684e-06
2.19444e-07
-2.46835e-06
8.40822e-08
-2.46371e-06
-5.2793e-08
-2.44288e-06
-1.89606e-07
-2.40596e-06
-3.24742e-07
-2.35324e-06
-4.56552e-07
-2.28516e-06
-5.83348e-07
-2.20236e-06
-7.03421e-07
-2.10564e-06
-8.15039e-07
-1.99601e-06
-9.16476e-07
-1.87469e-06
-1.00602e-06
-1.74307e-06
-1.08201e-06
-1.60276e-06
-1.14286e-06
-1.45557e-06
-1.18711e-06
-1.30351e-06
-1.21344e-06
-1.14875e-06
-1.22074e-06
-9.93634e-07
-1.20817e-06
-8.40645e-07
-1.17517e-06
-6.9238e-07
-1.12157e-06
-5.51522e-07
-1.04759e-06
-4.20799e-07
-9.53911e-07
-3.02958e-07
-8.41727e-07
-2.00723e-07
-7.12763e-07
-1.16769e-07
-5.69308e-07
-5.36888e-08
-4.14214e-07
-1.39762e-08
-2.50867e-07
-8.33411e-08
-1.54827e-08
1.02798e-07
-5.88966e-08
3.02457e-07
-1.2716e-07
4.91649e-07
-2.17185e-07
6.66908e-07
-3.25902e-07
8.25538e-07
-4.50291e-07
9.6542e-07
-5.87393e-07
1.08499e-06
-7.34341e-07
1.18322e-06
-8.8837e-07
1.25955e-06
-1.04684e-06
1.31384e-06
-1.20725e-06
1.34631e-06
-1.36724e-06
1.35748e-06
-1.52462e-06
1.34814e-06
-1.67734e-06
1.31925e-06
-1.82354e-06
1.27197e-06
-1.9615e-06
1.20756e-06
-2.08968e-06
1.12737e-06
-2.2067e-06
1.03282e-06
-2.31132e-06
9.25391e-07
-2.40247e-06
8.0659e-07
-2.47922e-06
6.77957e-07
-2.54077e-06
5.41056e-07
-2.5865e-06
3.97477e-07
-2.61589e-06
2.48836e-07
-2.62859e-06
9.67831e-08
-2.62439e-06
-5.69987e-08
-2.60321e-06
-2.10784e-07
-2.56515e-06
-3.62803e-07
-2.51046e-06
-5.11244e-07
-2.43956e-06
-6.54249e-07
-2.35305e-06
-7.89925e-07
-2.25174e-06
-9.16352e-07
-2.13661e-06
-1.0316e-06
-2.00888e-06
-1.13375e-06
-1.86997e-06
-1.22093e-06
-1.72152e-06
-1.29132e-06
-1.56539e-06
-1.34323e-06
-1.40368e-06
-1.37515e-06
-1.23867e-06
-1.38575e-06
-1.07285e-06
-1.37398e-06
-9.08885e-07
-1.33914e-06
-7.49578e-07
-1.28088e-06
-5.97852e-07
-1.19931e-06
-4.56707e-07
-1.09506e-06
-3.29185e-07
-9.69249e-07
-2.18324e-07
-8.23624e-07
-1.2712e-07
-6.60512e-07
-5.84889e-08
-4.82845e-07
-1.52331e-08
-2.94122e-07
-9.85742e-08
-1.66898e-08
1.19488e-07
-6.34497e-08
3.49217e-07
-1.36896e-07
5.65095e-07
-2.33627e-07
7.63639e-07
-3.50264e-07
9.42175e-07
-4.83486e-07
1.09864e-06
-6.30058e-07
1.23156e-06
-7.86855e-07
1.34002e-06
-9.50892e-07
1.42359e-06
-1.11933e-06
1.48228e-06
-1.28952e-06
1.51649e-06
-1.45895e-06
1.52691e-06
-1.62532e-06
1.51451e-06
-1.78653e-06
1.48046e-06
-1.94064e-06
1.42608e-06
-2.08589e-06
1.35281e-06
-2.22072e-06
1.2622e-06
-2.34373e-06
1.15583e-06
-2.45369e-06
1.03534e-06
-2.5495e-06
9.02404e-07
-2.63024e-06
7.58702e-07
-2.69513e-06
6.05947e-07
-2.74352e-06
4.45866e-07
-2.7749e-06
2.80215e-07
-2.7889e-06
1.10778e-07
-2.78527e-06
-6.06207e-08
-2.76395e-06
-2.32113e-07
-2.72497e-06
-4.0178e-07
-2.66856e-06
-5.6765e-07
-2.59511e-06
-7.27697e-07
-2.50519e-06
-8.79844e-07
-2.39957e-06
-1.02198e-06
-2.27921e-06
-1.15196e-06
-2.14531e-06
-1.26765e-06
-1.9993e-06
-1.36694e-06
-1.84284e-06
-1.44777e-06
-1.67785e-06
-1.50822e-06
-1.5065e-06
-1.5465e-06
-1.33118e-06
-1.56106e-06
-1.15453e-06
-1.55063e-06
-9.79394e-07
-1.51428e-06
-8.08789e-07
-1.45148e-06
-6.45896e-07
-1.36221e-06
-4.94005e-07
-1.24695e-06
-3.56468e-07
-1.10679e-06
-2.36659e-07
-9.43433e-07
-1.37918e-07
-7.59253e-07
-6.35046e-08
-5.57259e-07
-1.65494e-08
-3.41078e-07
-1.15124e-07
-1.79328e-08
1.37421e-07
-6.81275e-08
3.99412e-07
-1.46881e-07
6.43849e-07
-2.50463e-07
8.67221e-07
-3.7517e-07
1.06688e-06
-5.17368e-07
1.24084e-06
-6.73532e-07
1.38773e-06
-8.40274e-07
1.50676e-06
-1.01437e-06
1.59769e-06
-1.1928e-06
1.66071e-06
-1.37272e-06
1.69641e-06
-1.55152e-06
1.70571e-06
-1.72679e-06
1.68978e-06
-1.89633e-06
1.65001e-06
-2.05817e-06
1.58792e-06
-2.21052e-06
1.50517e-06
-2.35181e-06
1.40349e-06
-2.48063e-06
1.28464e-06
-2.59574e-06
1.15045e-06
-2.69607e-06
1.00274e-06
-2.78071e-06
8.43339e-07
-2.84887e-06
6.74107e-07
-2.89991e-06
4.96906e-07
-2.93331e-06
3.13621e-07
-2.9487e-06
1.26167e-07
-2.94582e-06
-6.35021e-08
-2.92455e-06
-2.53383e-07
-2.88492e-06
-4.41414e-07
-2.8271e-06
-6.25471e-07
-2.75143e-06
-8.03362e-07
-2.65844e-06
-9.72831e-07
-2.54886e-06
-1.13157e-06
-2.4236e-06
-1.27722e-06
-2.28385e-06
-1.40741e-06
-2.13101e-06
-1.51977e-06
-1.96677e-06
-1.61201e-06
-1.79307e-06
-1.68191e-06
-1.61215e-06
-1.72742e-06
-1.42651e-06
-1.7467e-06
-1.23893e-06
-1.73821e-06
-1.05244e-06
-1.70077e-06
-8.70287e-07
-1.63364e-06
-6.95918e-07
-1.53658e-06
-5.32926e-07
-1.40994e-06
-3.85001e-07
-1.25471e-06
-2.55875e-07
-1.07256e-06
-1.4926e-07
-8.65868e-07
-6.8785e-08
-6.37733e-07
-1.79396e-08
-3.91923e-07
-1.33063e-07
-1.92199e-08
1.56641e-07
-7.29576e-08
4.53149e-07
-1.57168e-07
7.2806e-07
-2.67772e-07
9.77825e-07
-4.00721e-07
1.19983e-06
-5.52052e-07
1.39217e-06
-7.17932e-07
1.55361e-06
-8.947e-07
1.68353e-06
-1.0789e-06
1.78188e-06
-1.26728e-06
1.8491e-06
-1.45687e-06
1.88599e-06
-1.64489e-06
1.89374e-06
-1.82886e-06
1.87375e-06
-2.00651e-06
1.82766e-06
-2.17583e-06
1.75724e-06
-2.33502e-06
1.66435e-06
-2.48248e-06
1.55095e-06
-2.61683e-06
1.41899e-06
-2.73684e-06
1.27047e-06
-2.84148e-06
1.10738e-06
-2.92984e-06
9.31698e-07
-3.00116e-06
7.45424e-07
-3.0548e-06
5.50547e-07
-3.09025e-06
3.49075e-07
-3.10713e-06
1.43041e-07
-3.10515e-06
-6.54796e-08
-3.08417e-06
-2.7436e-07
-3.04418e-06
-4.81408e-07
-2.9853e-06
-6.84354e-07
-2.90781e-06
-8.80849e-07
-2.81218e-06
-1.06846e-06
-2.69907e-06
-1.24468e-06
-2.56936e-06
-1.40693e-06
-2.42416e-06
-1.5526e-06
-2.26488e-06
-1.67906e-06
-2.09316e-06
-1.78373e-06
-1.911e-06
-1.86408e-06
-1.72067e-06
-1.91775e-06
-1.52477e-06
-1.9426e-06
-1.32622e-06
-1.93676e-06
-1.12824e-06
-1.89876e-06
-9.34303e-07
-1.82757e-06
-7.48146e-07
-1.72273e-06
-5.73683e-07
-1.5844e-06
-4.14964e-07
-1.41343e-06
-2.7611e-07
-1.21141e-06
-1.61236e-07
-9.80743e-07
-7.43768e-08
-7.24592e-07
-1.94173e-08
-4.46882e-07
-1.52481e-07
-2.05587e-08
1.772e-07
-7.79657e-08
5.10556e-07
-1.67807e-07
8.17901e-07
-2.85627e-07
1.09564e-06
-4.27007e-07
1.34121e-06
-5.87633e-07
1.5528e-06
-7.63349e-07
1.72932e-06
-9.50205e-07
1.87038e-06
-1.14449e-06
1.97617e-06
-1.34276e-06
2.04737e-06
-1.54185e-06
2.08508e-06
-1.73889e-06
2.09077e-06
-1.93128e-06
2.06614e-06
-2.11672e-06
2.0131e-06
-2.29315e-06
1.93367e-06
-2.45878e-06
1.82998e-06
-2.61203e-06
1.7042e-06
-2.75154e-06
1.5585e-06
-2.87612e-06
1.39505e-06
-2.98476e-06
1.21602e-06
-3.0766e-06
1.02353e-06
-3.1509e-06
8.19721e-07
-3.20704e-06
6.0669e-07
-3.24453e-06
3.86562e-07
-3.26296e-06
1.61476e-07
-3.26206e-06
-6.63873e-08
-3.24162e-06
-2.94792e-07
-3.20161e-06
-5.21427e-07
-3.14207e-06
-7.43891e-07
-3.06323e-06
-9.59688e-07
-2.96548e-06
-1.16621e-06
-2.84939e-06
-1.36076e-06
-2.71577e-06
-1.54055e-06
-2.56568e-06
-1.70269e-06
-2.40044e-06
-1.8443e-06
-2.2217e-06
-1.96246e-06
-2.03144e-06
-2.05435e-06
-1.83196e-06
-2.11723e-06
-1.62596e-06
-2.1486e-06
-1.41648e-06
-2.14624e-06
-1.20693e-06
-2.10831e-06
-1.00102e-06
-2.03348e-06
-8.02775e-07
-1.92097e-06
-6.16464e-07
-1.77071e-06
-4.46523e-07
-1.58337e-06
-2.97493e-07
-1.36044e-06
-1.73931e-07
-1.1043e-06
-8.03245e-08
-8.18199e-07
-2.09956e-08
-5.06211e-07
-1.73476e-07
-2.19564e-08
1.99156e-07
-8.31766e-08
5.71776e-07
-1.78843e-07
9.13568e-07
-3.04092e-07
1.22089e-06
-4.54105e-07
1.49122e-06
-6.2419e-07
1.72288e-06
-8.09847e-07
1.91498e-06
-1.00682e-06
2.06736e-06
-1.21113e-06
2.18048e-06
-1.41914e-06
2.25537e-06
-1.6275e-06
2.29345e-06
-1.83323e-06
2.2965e-06
-2.03365e-06
2.26657e-06
-2.22642e-06
2.20587e-06
-2.40948e-06
2.11673e-06
-2.58104e-06
2.00154e-06
-2.73956e-06
1.86272e-06
-2.88372e-06
1.70266e-06
-3.0124e-06
1.52373e-06
-3.12463e-06
1.32825e-06
-3.21961e-06
1.11851e-06
-3.29663e-06
8.96741e-07
-3.35511e-06
6.65175e-07
-3.39458e-06
4.26027e-07
-3.41463e-06
1.81526e-07
-3.41495e-06
-6.60606e-08
-3.39534e-06
-3.14403e-07
-3.35568e-06
-5.6109e-07
-3.29596e-06
-8.03607e-07
-3.21633e-06
-1.03932e-06
-3.11707e-06
-1.26547e-06
-2.99867e-06
-1.47916e-06
-2.86184e-06
-1.67738e-06
-2.70753e-06
-1.857e-06
-2.537e-06
-2.01483e-06
-2.35184e-06
-2.14763e-06
-2.15398e-06
-2.2522e-06
-1.94577e-06
-2.32544e-06
-1.72996e-06
-2.36442e-06
-1.5097e-06
-2.3665e-06
-1.28857e-06
-2.32944e-06
-1.07055e-06
-2.2515e-06
-8.59963e-07
-2.13156e-06
-6.61435e-07
-1.96924e-06
-4.79828e-07
-1.76498e-06
-3.20144e-07
-1.52013e-06
-1.8743e-07
-1.23702e-06
-8.66719e-08
-9.18957e-07
-2.26876e-08
-5.70196e-07
-1.96164e-07
-2.34206e-08
2.22577e-07
-8.86152e-08
6.36971e-07
-1.90324e-07
1.01528e-06
-3.23233e-07
1.3538e-06
-4.8209e-07
1.65008e-06
-6.61793e-07
1.90258e-06
-8.57469e-07
2.11066e-06
-1.06454e-06
2.27442e-06
-1.27876e-06
2.3947e-06
-1.49625e-06
2.47286e-06
-1.71354e-06
2.51073e-06
-1.9275e-06
2.51047e-06
-2.13542e-06
2.47449e-06
-2.33492e-06
2.40536e-06
-2.52395e-06
2.30576e-06
-2.70076e-06
2.17836e-06
-2.86388e-06
2.02584e-06
-3.01205e-06
1.85083e-06
-3.14422e-06
1.6559e-06
-3.2595e-06
1.44354e-06
-3.35715e-06
1.21616e-06
-3.43654e-06
9.7613e-07
-3.49713e-06
7.25764e-07
-3.53846e-06
4.67357e-07
-3.56014e-06
2.0321e-07
-3.56186e-06
-6.43416e-08
-3.54337e-06
-3.329e-07
-3.50448e-06
-5.99975e-07
-3.44513e-06
-8.62957e-07
-3.36536e-06
-1.1191e-06
-3.26534e-06
-1.36549e-06
-3.14544e-06
-1.59906e-06
-3.00624e-06
-1.81658e-06
-2.84857e-06
-2.01467e-06
-2.67358e-06
-2.18981e-06
-2.48278e-06
-2.33844e-06
-2.27803e-06
-2.45695e-06
-2.06167e-06
-2.5418e-06
-1.83648e-06
-2.5896e-06
-1.60573e-06
-2.59725e-06
-1.37315e-06
-2.56202e-06
-1.14297e-06
-2.48168e-06
-9.19822e-07
-2.35471e-06
-7.08734e-07
-2.18033e-06
-5.15016e-07
-1.95869e-06
-3.44178e-07
-1.69097e-06
-2.01812e-07
-1.37939e-06
-9.34624e-08
-1.02731e-06
-2.45063e-08
-6.39152e-07
-2.2067e-07
-2.49594e-08
2.47536e-07
-9.43086e-08
7.0632e-07
-2.02297e-07
1.12327e-06
-3.43117e-07
1.49462e-06
-5.11035e-07
1.818e-06
-7.00501e-07
2.09205e-06
-9.06241e-07
2.31639e-06
-1.12333e-06
2.49151e-06
-1.34724e-06
2.61861e-06
-1.57388e-06
2.6995e-06
-1.7996e-06
2.73645e-06
-2.0212e-06
2.73207e-06
-2.23591e-06
2.68919e-06
-2.44134e-06
2.6108e-06
-2.6355e-06
2.49992e-06
-2.81671e-06
2.35956e-06
-2.98356e-06
2.19269e-06
-3.1349e-06
2.00217e-06
-3.26978e-06
1.79078e-06
-3.38742e-06
1.56118e-06
-3.48716e-06
1.3159e-06
-3.56845e-06
1.05742e-06
-3.63081e-06
7.88126e-07
-3.67383e-06
5.10374e-07
-3.69713e-06
2.26511e-07
-3.70039e-06
-6.10857e-08
-3.68331e-06
-3.49974e-07
-3.64567e-06
-6.37612e-07
-3.58731e-06
-9.21321e-07
-3.50815e-06
-1.19826e-06
-3.40824e-06
-1.4654e-06
-3.2878e-06
-1.7195e-06
-3.14726e-06
-1.95713e-06
-2.98729e-06
-2.17463e-06
-2.8089e-06
-2.36821e-06
-2.61345e-06
-2.53389e-06
-2.40273e-06
-2.66766e-06
-2.17902e-06
-2.76551e-06
-1.9451e-06
-2.82353e-06
-1.70431e-06
-2.83805e-06
-1.46054e-06
-2.80578e-06
-1.21826e-06
-2.72397e-06
-9.82424e-07
-2.59054e-06
-7.58473e-07
-2.40428e-06
-5.52212e-07
-2.16496e-06
-3.69708e-07
-1.87347e-06
-2.17158e-07
-1.53194e-06
-1.0074e-07
-1.14372e-06
-2.64654e-08
-7.13427e-07
-2.47135e-07
-2.65821e-08
2.74118e-07
-1.00288e-07
7.80026e-07
-2.1482e-07
1.2378e-06
-3.63819e-07
1.64362e-06
-5.41018e-07
1.9952e-06
-7.40375e-07
2.29141e-06
-9.56177e-07
2.5322e-06
-1.18313e-06
2.71846e-06
-1.4164e-06
2.85189e-06
-1.65169e-06
2.93479e-06
-1.8852e-06
2.96996e-06
-2.11365e-06
2.96051e-06
-2.33423e-06
2.90978e-06
-2.54461e-06
2.82118e-06
-2.74284e-06
2.69815e-06
-2.92735e-06
2.54406e-06
-3.09685e-06
2.36219e-06
-3.25033e-06
2.15565e-06
-3.38696e-06
1.92741e-06
-3.50608e-06
1.6803e-06
-3.60717e-06
1.41699e-06
-3.68976e-06
1.14001e-06
-3.75345e-06
8.51824e-07
-3.7979e-06
5.54817e-07
-3.82274e-06
2.51356e-07
-3.82766e-06
-5.61693e-08
-3.81233e-06
-3.65305e-07
-3.77645e-06
-6.73489e-07
-3.71977e-06
-9.78003e-07
-3.64208e-06
-1.27594e-06
-3.5433e-06
-1.56418e-06
-3.42346e-06
-1.83934e-06
-3.28281e-06
-2.09778e-06
-3.12182e-06
-2.33562e-06
-2.94131e-06
-2.54871e-06
-2.74248e-06
-2.73272e-06
-2.52697e-06
-2.88317e-06
-2.29695e-06
-2.99553e-06
-2.05518e-06
-3.0653e-06
-1.80502e-06
-3.0882e-06
-1.55052e-06
-3.06029e-06
-1.29634e-06
-2.97815e-06
-1.04779e-06
-2.83909e-06
-8.10741e-07
-2.64133e-06
-5.9153e-07
-2.38417e-06
-3.96841e-07
-2.06816e-06
-2.33551e-07
-1.69523e-06
-1.08552e-07
-1.26872e-06
-2.85795e-08
-7.93399e-07
-2.75715e-07
-2.83002e-08
3.02418e-07
-1.0659e-07
8.58315e-07
-2.27959e-07
1.35917e-06
-3.85426e-07
1.80109e-06
-5.7213e-07
2.1819e-06
-7.8148e-07
2.50076e-06
-1.00728e-06
2.758e-06
-1.24385e-06
2.95502e-06
-1.48604e-06
3.09408e-06
-1.72932e-06
3.17808e-06
-1.96977e-06
3.21041e-06
-2.20404e-06
3.19479e-06
-2.42935e-06
3.13509e-06
-2.64342e-06
3.03525e-06
-2.84441e-06
2.89914e-06
-3.03088e-06
2.73054e-06
-3.20172e-06
2.53302e-06
-3.35605e-06
2.30998e-06
-3.49324e-06
2.0646e-06
-3.61278e-06
1.79984e-06
-3.71429e-06
1.51849e-06
-3.79742e-06
1.22315e-06
-3.86189e-06