/*--------------------------------*- C++ -*----------------------------------*\
  =========                 |
  \\      /  F ield         | OpenFOAM: The Open Source CFD Toolbox
   \\    /   O peration     | Website:  https://openfoam.org
    \\  /    A nd           | Version:  7
     \\/     M anipulation  |
\*---------------------------------------------------------------------------*/
FoamFile
{
    version     2.0;
    format      ascii;
    class       volVectorField;
    location    "0.0592";
    object      U;
}
// * * * * * * * * * * * * * * * * * * * * * * * * * * * * * * * * * * * * * //

dimensions      [0 1 -1 0 0 0 0];

internalField   nonuniform List<vector> 
2500
(
(2.978e-05 -2.9909e-05 0)
(9.04626e-05 -3.65777e-05 0)
(0.000124717 -1.87233e-05 0)
(9.3157e-05 7.49367e-06 0)
(-1.61869e-05 3.43384e-05 0)
(-0.000201735 5.90231e-05 0)
(-0.000456455 8.04099e-05 0)
(-0.000771189 9.81658e-05 0)
(-0.00113575 0.000112308 0)
(-0.00153968 0.000122987 0)
(-0.00197263 0.000130402 0)
(-0.00242462 0.000134768 0)
(-0.00288617 0.000136308 0)
(-0.00334833 0.000135241 0)
(-0.00380278 0.000131783 0)
(-0.00424181 0.000126145 0)
(-0.00465836 0.000118532 0)
(-0.00504603 0.000109144 0)
(-0.00539906 9.81751e-05 0)
(-0.00571233 8.58183e-05 0)
(-0.00598138 7.22627e-05 0)
(-0.00620243 5.76982e-05 0)
(-0.00637233 4.23155e-05 0)
(-0.00648862 2.63085e-05 0)
(-0.00654954 9.87551e-06 0)
(-0.006554 -6.77905e-06 0)
(-0.00650168 -2.34433e-05 0)
(-0.00639297 -3.98975e-05 0)
(-0.00622907 -5.59137e-05 0)
(-0.00601194 -7.12554e-05 0)
(-0.00574439 -8.56791e-05 0)
(-0.00543003 -9.89345e-05 0)
(-0.00507333 -0.000110767 0)
(-0.0046796 -0.00012092 0)
(-0.004255 -0.000129139 0)
(-0.00380646 -0.00013517 0)
(-0.00334175 -0.00013877 0)
(-0.00286934 -0.000139704 0)
(-0.00239835 -0.000137754 0)
(-0.0019385 -0.000132718 0)
(-0.00149998 -0.000124418 0)
(-0.00109327 -0.000112704 0)
(-0.000729008 -9.74682e-05 0)
(-0.000417646 -7.86774e-05 0)
(-0.000169005 -5.64556e-05 0)
(8.46658e-06 -3.13147e-05 0)
(0.000108968 -4.55814e-06 0)
(0.000132073 2.08078e-05 0)
(9.17511e-05 3.75299e-05 0)
(2.94127e-05 2.93531e-05 0)
(3.68258e-05 -9.08136e-05 0)
(8.29974e-05 -8.22484e-05 0)
(3.40133e-05 1.78903e-05 0)
(-0.000170096 0.000154197 0)
(-0.000553116 0.000298286 0)
(-0.00111544 0.000435676 0)
(-0.00184531 0.000558801 0)
(-0.00272379 0.000664022 0)
(-0.0037279 0.00074983 0)
(-0.00483268 0.000815869 0)
(-0.00601251 0.000862439 0)
(-0.00724195 0.000890233 0)
(-0.0084963 0.00090018 0)
(-0.00975197 0.000893355 0)
(-0.0109867 0.000870919 0)
(-0.0121797 0.000834086 0)
(-0.0133118 0.000784099 0)
(-0.0143656 0.000722215 0)
(-0.0153252 0.000649701 0)
(-0.0161767 0.000567829 0)
(-0.0169079 0.000477882 0)
(-0.0175082 0.000381153 0)
(-0.0179692 0.000278954 0)
(-0.0182841 0.000172623 0)
(-0.0184481 6.35291e-05 0)
(-0.0184585 -4.69231e-05 0)
(-0.0183144 -0.000157286 0)
(-0.018017 -0.00026607 0)
(-0.0175699 -0.00037174 0)
(-0.0169785 -0.000472724 0)
(-0.0162505 -0.000567413 0)
(-0.0153962 -0.00065418 0)
(-0.0144276 -0.000731386 0)
(-0.0133594 -0.000797404 0)
(-0.0122081 -0.000850639 0)
(-0.0109926 -0.000889553 0)
(-0.00973364 -0.000912696 0)
(-0.00845381 -0.000918741 0)
(-0.00717723 -0.000906521 0)
(-0.00592931 -0.00087508 0)
(-0.0047363 -0.000823736 0)
(-0.00362481 -0.000752173 0)
(-0.00262108 -0.000660584 0)
(-0.00175001 -0.000549926 0)
(-0.00103378 -0.000422394 0)
(-0.000489701 -0.000282358 0)
(-0.000127062 -0.000138037 0)
(5.75881e-05 -4.52809e-06 0)
(9.12791e-05 9.024e-05 0)
(3.7872e-05 9.17534e-05 0)
(1.99504e-05 -0.000126627 0)
(-1.37481e-05 -3.42748e-05 0)
(-0.0002273 0.000232858 0)
(-0.000671384 0.000576241 0)
(-0.00136911 0.000940643 0)
(-0.00232116 0.00129263 0)
(-0.00351243 0.00161249 0)
(-0.00491749 0.00188924 0)
(-0.00650459 0.00211718 0)
(-0.00823834 0.00229393 0)
(-0.0100817 0.00241918 0)
(-0.0119972 0.00249394 0)
(-0.013948 0.00252015 0)
(-0.0158988 0.00250028 0)
(-0.0178156 0.00243722 0)
(-0.0196667 0.00233412 0)
(-0.0214228 0.00219425 0)
(-0.023057 0.00202105 0)
(-0.0245448 0.001818 0)
(-0.0258646 0.00158863 0)
(-0.0269975 0.00133657 0)
(-0.0279273 0.00106545 0)
(-0.0286408 0.000779011 0)
(-0.0291276 0.000481039 0)
(-0.0293804 0.000175426 0)
(-0.0293949 -0.000133843 0)
(-0.02917 -0.000442674 0)
(-0.0287077 -0.000746863 0)
(-0.0280136 -0.0010421 0)
(-0.0270962 -0.00132399 0)
(-0.0259677 -0.00158805 0)
(-0.0246437 -0.00182979 0)
(-0.0231433 -0.00204469 0)
(-0.0214886 -0.00222831 0)
(-0.0197055 -0.00237633 0)
(-0.0178226 -0.00248464 0)
(-0.0158716 -0.00254943 0)
(-0.0138868 -0.00256728 0)
(-0.0119045 -0.00253531 0)
(-0.00996267 -0.00245136 0)
(-0.00810042 -0.00231412 0)
(-0.00635672 -0.00212354 0)
(-0.00476955 -0.00188117 0)
(-0.00337423 -0.00159087 0)
(-0.00220147 -0.00125994 0)
(-0.00127454 -0.000901015 0)
(-0.000605383 -0.000535255 0)
(-0.000189474 -0.000197167 0)
(7.56872e-07 5.78911e-05 0)
(2.22814e-05 0.000133637 0)
(-4.69942e-06 -9.91661e-05 0)
(-0.000146331 0.000165919 0)
(-0.000566774 0.000675731 0)
(-0.00129038 0.00129761 0)
(-0.00233051 0.00195077 0)
(-0.00368417 0.00258246 0)
(-0.00533163 0.0031592 0)
(-0.00724158 0.00366073 0)
(-0.00937523 0.00407558 0)
(-0.0116891 0.00439809 0)
(-0.0141371 0.00462656 0)
(-0.0166724 0.00476195 0)
(-0.0192484 0.00480709 0)
(-0.02182 0.00476608 0)
(-0.0243438 0.00464391 0)
(-0.0267791 0.00444616 0)
(-0.0290879 0.00417885 0)
(-0.0312352 0.00384831 0)
(-0.0331893 0.00346105 0)
(-0.0349222 0.00302377 0)
(-0.0364091 0.00254331 0)
(-0.0376289 0.00202664 0)
(-0.0385645 0.00148086 0)
(-0.0392023 0.000913252 0)
(-0.039533 0.000331248 0)
(-0.0395508 -0.000257527 0)
(-0.0392546 -0.000845256 0)
(-0.0386472 -0.00142393 0)
(-0.0377356 -0.00198535 0)
(-0.0365313 -0.00252119 0)
(-0.0350502 -0.00302299 0)
(-0.0333127 -0.00348227 0)
(-0.0313434 -0.0038906 0)
(-0.0291714 -0.00423968 0)
(-0.0268299 -0.00452151 0)
(-0.0243559 -0.00472855 0)
(-0.0217902 -0.00485386 0)
(-0.0191767 -0.00489136 0)
(-0.0165617 -0.00483608 0)
(-0.0139936 -0.00468448 0)
(-0.0115215 -0.00443486 0)
(-0.00919442 -0.00408793 0)
(-0.00705945 -0.00364755 0)
(-0.0051602 -0.00312195 0)
(-0.00353432 -0.00252538 0)
(-0.00221069 -0.00188088 0)
(-0.00120543 -0.00122441 0)
(-0.000517088 -0.000610522 0)
(-0.000126566 -0.00012047 0)
(-1.21592e-06 0.000115394 0)
(-3.03723e-05 4.18528e-06 0)
(-0.000289765 0.00054489 0)
(-0.000936971 0.0013754 0)
(-0.00196099 0.00234013 0)
(-0.00335968 0.00333785 0)
(-0.00512271 0.00429879 0)
(-0.00722377 0.00517621 0)
(-0.00962506 0.00594026 0)
(-0.0122811 0.00657296 0)
(-0.0151415 0.0070647 0)
(-0.0181526 0.00741181 0)
(-0.0212597 0.00761485 0)
(-0.0244083 0.00767739 0)
(-0.0275452 0.0076052 0)
(-0.0306192 0.00740559 0)
(-0.033582 0.00708696 0)
(-0.0363882 0.00665854 0)
(-0.0389964 0.0061301 0)
(-0.0413686 0.00551184 0)
(-0.0434712 0.00481431 0)
(-0.0452746 0.0040483 0)
(-0.0467537 0.00322489 0)
(-0.0478877 0.00235539 0)
(-0.0486606 0.00145137 0)
(-0.049061 0.000524663 0)
(-0.0490824 -0.00041258 0)
(-0.0487232 -0.00134793 0)
(-0.0479869 -0.00226868 0)
(-0.046882 -0.00316185 0)
(-0.0454224 -0.00401424 0)
(-0.0436271 -0.00481255 0)
(-0.0415204 -0.00554342 0)
(-0.0391319 -0.00619362 0)
(-0.0364961 -0.00675023 0)
(-0.0336527 -0.00720082 0)
(-0.0306457 -0.00753374 0)
(-0.0275233 -0.0077384 0)
(-0.0243374 -0.00780564 0)
(-0.0211429 -0.00772817 0)
(-0.0179965 -0.00750103 0)
(-0.0149559 -0.0071223 0)
(-0.0120781 -0.00659391 0)
(-0.00941825 -0.00592273 0)
(-0.00702712 -0.00512215 0)
(-0.00494907 -0.00421426 0)
(-0.00321935 -0.00323304 0)
(-0.00186037 -0.00222895 0)
(-0.000877406 -0.00127457 0)
(-0.000265684 -0.000472374 0)
(-2.59898e-05 2.36464e-05 0)
(-5.4756e-05 0.000183964 0)
(-0.000432608 0.00111018 0)
(-0.00131256 0.00234434 0)
(-0.00264526 0.00371723 0)
(-0.0044098 0.00511265 0)
(-0.00658577 0.00644698 0)
(-0.00913833 0.00766186 0)
(-0.0120221 0.00871846 0)
(-0.0151847 0.00959237 0)
(-0.0185688 0.0102698 0)
(-0.0221141 0.010745 0)
(-0.0257591 0.0110179 0)
(-0.0294424 0.0110928 0)
(-0.0331039 0.0109771 0)
(-0.036686 0.0106808 0)
(-0.0401337 0.0102153 0)
(-0.0433959 0.00959333 0)
(-0.0464252 0.00882875 0)
(-0.0491786 0.00793591 0)
(-0.0516178 0.00692979 0)
(-0.0537091 0.00582578 0)
(-0.0554238 0.00463972 0)
(-0.0567384 0.0033878 0)
(-0.0576345 0.00208661 0)
(-0.0580991 0.000753123 0)
(-0.058125 -0.000595251 0)
(-0.0577101 -0.00194072 0)
(-0.0568586 -0.00326508 0)
(-0.0555801 -0.00454981 0)
(-0.0538904 -0.00577609 0)
(-0.0518112 -0.00692496 0)
(-0.0493701 -0.00797746 0)
(-0.0466006 -0.00891487 0)
(-0.0435421 -0.0097189 0)
(-0.0402394 -0.0103721 0)
(-0.0367424 -0.0108581 0)
(-0.0331058 -0.0111622 0)
(-0.0293882 -0.0112719 0)
(-0.0256516 -0.0111773 0)
(-0.0219599 -0.0108719 0)
(-0.0183782 -0.0103536 0)
(-0.0149709 -0.0096259 0)
(-0.0118003 -0.00869887 0)
(-0.00892427 -0.0075914 0)
(-0.0063943 -0.00633349 0)
(-0.00425321 -0.00496965 0)
(-0.00253172 -0.00356345 0)
(-0.00124462 -0.00220272 0)
(-0.000404812 -0.00100609 0)
(-4.9599e-05 -0.000142361 0)
(-7.72086e-05 0.000437104 0)
(-0.000570168 0.00186087 0)
(-0.0016813 0.00358476 0)
(-0.00332327 0.00543268 0)
(-0.005455 0.00727832 0)
(-0.00804426 0.00902752 0)
(-0.011046 0.0106125 0)
(-0.0144062 0.0119866 0)
(-0.0180648 0.0131196 0)
(-0.0219576 0.0139941 0)
(-0.0260177 0.014602 0)
(-0.0301772 0.014943 0)
(-0.0343685 0.015022 0)
(-0.0385258 0.0148486 0)
(-0.0425854 0.0144351 0)
(-0.0464871 0.0137966 0)
(-0.0501744 0.0129497 0)
(-0.0535954 0.0119126 0)
(-0.0567026 0.0107043 0)
(-0.0594537 0.00934461 0)
(-0.0618115 0.00785417 0)
(-0.0637446 0.00625408 0)
(-0.0652267 0.004566 0)
(-0.0662377 0.00281212 0)
(-0.0667633 0.00101519 0)
(-0.0667951 -0.000801524 0)
(-0.0663313 -0.00261422 0)
(-0.0653759 -0.00439857 0)
(-0.0639398 -0.00612985 0)
(-0.0620402 -0.00778296 0)
(-0.0597008 -0.00933266 0)
(-0.0569521 -0.0107537 0)
(-0.053831 -0.0120213 0)
(-0.0503805 -0.0131112 0)
(-0.0466499 -0.0140003 0)
(-0.0426943 -0.0146671 0)
(-0.0385736 -0.0150924 0)
(-0.0343524 -0.0152597 0)
(-0.0300989 -0.0151564 0)
(-0.0258835 -0.0147743 0)
(-0.0217781 -0.0141112 0)
(-0.0178541 -0.0131717 0)
(-0.0141807 -0.0119693 0)
(-0.0108234 -0.0105281 0)
(-0.00784146 -0.00888547 0)
(-0.00528662 -0.00709551 0)
(-0.00319953 -0.00523307 0)
(-0.00160638 -0.00339826 0)
(-0.000539138 -0.00172145 0)
(-7.13558e-05 -0.000379886 0)
(-9.78038e-05 0.000759727 0)
(-0.000701241 0.00279229 0)
(-0.00203864 0.00509356 0)
(-0.00398648 0.00748492 0)
(-0.00648342 0.00983378 0)
(-0.00948431 0.0120385 0)
(-0.0129329 0.014024 0)
(-0.0167652 0.0157375 0)
(-0.0209131 0.0171442 0)
(-0.0253049 0.0182231 0)
(-0.0298671 0.018965 0)
(-0.0345256 0.0193692 0)
(-0.039207 0.0194418 0)
(-0.0438399 0.0191944 0)
(-0.0483558 0.0186424 0)
(-0.0526894 0.0178046 0)
(-0.0567799 0.016702 0)
(-0.0605713 0.0153572 0)
(-0.0640123 0.0137944 0)
(-0.0670574 0.012039 0)
(-0.0696665 0.0101169 0)
(-0.0718055 0.00805505 0)
(-0.0734462 0.00588109 0)
(-0.0745668 0.00362329 0)
(-0.0751517 0.00131063 0)
(-0.0751919 -0.00102722 0)
(-0.0746851 -0.00335994 0)
(-0.0736357 -0.00565658 0)
(-0.0720551 -0.00788562 0)
(-0.0699617 -0.0100152 0)
(-0.0673809 -0.0120132 0)
(-0.0643453 -0.0138476 0)
(-0.0608944 -0.0154868 0)
(-0.0570747 -0.0169003 0)
(-0.0529391 -0.0180586 0)
(-0.0485468 -0.0189348 0)
(-0.0439628 -0.0195045 0)
(-0.0392567 -0.0197471 0)
(-0.0345023 -0.0196466 0)
(-0.0297763 -0.0191931 0)
(-0.025157 -0.0183835 0)
(-0.0207227 -0.0172237 0)
(-0.0165501 -0.0157299 0)
(-0.0127125 -0.0139309 0)
(-0.0092781 -0.0118707 0)
(-0.00630853 -0.00961164 0)
(-0.00385571 -0.00723794 0)
(-0.00195825 -0.00485931 0)
(-0.000667437 -0.00261451 0)
(-9.12957e-05 -0.000685228 0)
(-0.000116874 0.00114809 0)
(-0.000826276 0.00389867 0)
(-0.00238416 0.00686555 0)
(-0.00463305 0.00987014 0)
(-0.00749182 0.0127763 0)
(-0.010902 0.0154775 0)
(-0.0147951 0.0178935 0)
(-0.019097 0.0199671 0)
(-0.0237302 0.0216597 0)
(-0.0286153 0.0229484 0)
(-0.0336719 0.023823 0)
(-0.0388196 0.0242832 0)
(-0.0439794 0.0243368 0)
(-0.0490748 0.0239977 0)
(-0.0540323 0.0232849 0)
(-0.0587827 0.0222211 0)
(-0.0632612 0.020832 0)
(-0.0674081 0.0191453 0)
(-0.071169 0.0171907 0)
(-0.0744956 0.014999 0)
(-0.0773453 0.0126024 0)
(-0.0796819 0.0100339 0)
(-0.0814755 0.00732745 0)
(-0.0827027 0.00451773 0)
(-0.083347 0.00164041 0)
(-0.0833985 -0.00126805 0)
(-0.0828546 -0.00417039 0)
(-0.0817198 -0.00702858 0)
(-0.0800057 -0.00980394 0)
(-0.0777317 -0.0124573 0)
(-0.0749242 -0.0149492 0)
(-0.0716177 -0.0172404 0)
(-0.0678537 -0.0192922 0)
(-0.0636814 -0.0210669 0)
(-0.0591569 -0.0225285 0)
(-0.0543431 -0.0236438 0)
(-0.0493092 -0.024383 0)
(-0.0441296 -0.0247206 0)
(-0.0388835 -0.0246372 0)
(-0.0336535 -0.0241201 0)
(-0.0285244 -0.0231653 0)
(-0.0235816 -0.021779 0)
(-0.0189098 -0.0199798 0)
(-0.0145907 -0.0178002 0)
(-0.0107023 -0.0152899 0)
(-0.00731717 -0.012518 0)
(-0.00449926 -0.00957634 0)
(-0.00230023 -0.00658217 0)
(-0.000790278 -0.00368032 0)
(-0.000109759 -0.00105489 0)
(-0.000134803 0.00159907 0)
(-0.000946422 0.00517458 0)
(-0.00271956 0.00889535 0)
(-0.00526488 0.012584 0)
(-0.00848215 0.0161029 0)
(-0.0122994 0.0193424 0)
(-0.0166357 0.0222191 0)
(-0.0214057 0.0246727 0)
(-0.0265224 0.0266627 0)
(-0.031898 0.0281651 0)
(-0.0374449 0.0291696 0)
(-0.0430762 0.029677 0)
(-0.0487075 0.0296973 0)
(-0.054257 0.0292476 0)
(-0.059647 0.0283507 0)
(-0.0648043 0.0270338 0)
(-0.0696604 0.0253275 0)
(-0.0741527 0.0232652 0)
(-0.0782241 0.0208822 0)
(-0.0818238 0.0182155 0)
(-0.0849072 0.0153034 0)
(-0.0874361 0.0121853 0)
(-0.0893793 0.008902 0)
(-0.0907122 0.00549487 0)
(-0.0914171 0.00200653 0)
(-0.0914835 -0.00151948 0)
(-0.0909084 -0.00503863 0)
(-0.0896959 -0.00850549 0)
(-0.087858 -0.0118738 0)
(-0.0854142 -0.0150968 0)
(-0.0823922 -0.0181273 0)
(-0.0788274 -0.0209182 0)
(-0.074763 -0.0234233 0)
(-0.0702504 -0.0255973 0)
(-0.0653484 -0.0273972 0)
(-0.0601231 -0.0287828 0)
(-0.0546475 -0.0297184 0)
(-0.0490007 -0.0301731 0)
(-0.043267 -0.030123 0)
(-0.0375348 -0.0295525 0)
(-0.0318957 -0.0284557 0)
(-0.0264426 -0.0268386 0)
(-0.0212684 -0.024721 0)
(-0.0164645 -0.0221384 0)
(-0.012119 -0.0191448 0)
(-0.00831637 -0.0158149 0)
(-0.00513327 -0.0122467 0)
(-0.00263465 -0.00856341 0)
(-0.000909029 -0.00491458 0)
(-0.000127161 -0.00148606 0)
(-0.00015195 0.00211031 0)
(-0.00106307 0.0066157 0)
(-0.00304753 0.0111785 0)
(-0.0058858 0.0156231 0)
(-0.0094592 0.0198111 0)
(-0.0136823 0.0236318 0)
(-0.0184614 0.0269999 0)
(-0.0236995 0.0298538 0)
(-0.0292996 0.0321522 0)
(-0.0351652 0.0338712 0)
(-0.0412009 0.0350015 0)
(-0.0473133 0.0355461 0)
(-0.0534123 0.0355178 0)
(-0.0594112 0.0349375 0)
(-0.0652279 0.0338324 0)
(-0.0707856 0.0322347 0)
(-0.0760128 0.0301806 0)
(-0.0808438 0.0277092 0)
(-0.0852195 0.024862 0)
(-0.0890868 0.0216822 0)
(-0.0923994 0.0182149 0)
(-0.0951178 0.0145063 0)
(-0.0972094 0.0106036 0)
(-0.0986483 0.00655557 0)
(-0.0994162 0.00241185 0)
(-0.0995017 -0.00177667 0)
(-0.0989012 -0.00595798 0)
(-0.0976186 -0.010079 0)
(-0.0956656 -0.0140856 0)
(-0.093062 -0.0179231 0)
(-0.0898357 -0.0215362 0)
(-0.086023 -0.0248698 0)
(-0.0816684 -0.0278693 0)
(-0.0768249 -0.0304817 0)
(-0.0715535 -0.032656 0)
(-0.0659233 -0.0343449 0)
(-0.0600108 -0.0355056 0)
(-0.0538993 -0.0361015 0)
(-0.0476783 -0.0361034 0)
(-0.0414423 -0.0354916 0)
(-0.0352898 -0.0342578 0)
(-0.0293214 -0.0324066 0)
(-0.0236393 -0.029958 0)
(-0.0183447 -0.0269497 0)
(-0.0135371 -0.0234387 0)
(-0.00931321 -0.019504 0)
(-0.00576306 -0.0152487 0)
(-0.00296499 -0.010801 0)
(-0.00102538 -0.00631443 0)
(-0.000143911 -0.00197686 0)
(-0.000168639 0.00268031 0)
(-0.00117764 0.00821913 0)
(-0.00337114 0.0137121 0)
(-0.00650054 0.018985 0)
(-0.0104292 0.0238998 0)
(-0.0150583 0.0283454 0)
(-0.0202812 0.0322364 0)
(-0.0259888 0.035511 0)
(-0.0320737 0.0381286 0)
(-0.0384303 0.0400665 0)
(-0.0449551 0.0413179 0)
(-0.0515481 0.0418886 0)
(-0.0581131 0.0417953 0)
(-0.0645588 0.0410635 0)
(-0.0707989 0.0397254 0)
(-0.0767529 0.0378188 0)
(-0.0823466 0.0353859 0)
(-0.0875119 0.0324721 0)
(-0.0921876 0.0291253 0)
(-0.096319 0.0253956 0)
(-0.0998583 0.0213346 0)
(-0.102765 0.0169954 0)
(-0.105005 0.0124326 0)
(-0.106551 0.00770178 0)
(-0.107385 0.00286002 0)
(-0.107494 -0.00203436 0)
(-0.106875 -0.00692171 0)
(-0.10553 -0.0117411 0)
(-0.10347 -0.0164304 0)
(-0.100716 -0.0209267 0)
(-0.0972948 -0.0251664 0)
(-0.0932436 -0.0290857 0)
(-0.0886076 -0.0326215 0)
(-0.0834409 -0.0357124 0)
(-0.0778065 -0.0382989 0)
(-0.071776 -0.0403258 0)
(-0.065429 -0.0417426 0)
(-0.0588531 -0.0425058 0)
(-0.0521429 -0.0425803 0)
(-0.045399 -0.0419414 0)
(-0.038727 -0.0405769 0)
(-0.0322363 -0.0384893 0)
(-0.0260382 -0.0356979 0)
(-0.0202449 -0.0322407 0)
(-0.0149678 -0.0281771 0)
(-0.0103165 -0.0235893 0)
(-0.00639505 -0.0185845 0)
(-0.00329525 -0.0132952 0)
(-0.00114109 -0.0078789 0)
(-0.000160387 -0.00252639 0)
(-0.000185145 0.0033083 0)
(-0.00129148 0.00998352 0)
(-0.00369347 0.0164949 0)
(-0.00711403 0.0226693 0)
(-0.0113989 0.0283694 0)
(-0.0164357 0.0334846 0)
(-0.0221047 0.0379305 0)
(-0.0282845 0.0416464 0)
(-0.0348569 0.0445938 0)
(-0.0417065 0.0467527 0)
(-0.048722 0.0481194 0)
(-0.055796 0.0487043 0)
(-0.0628267 0.0485287 0)
(-0.0697177 0.0476234 0)
(-0.0763788 0.0460267 0)
(-0.0827262 0.0437826 0)
(-0.0886831 0.0409398 0)
(-0.0941793 0.0375504 0)
(-0.0991518 0.0336691 0)
(-0.103545 0.0293531 0)
(-0.107309 0.0246609 0)
(-0.110403 0.0196527 0)
(-0.112791 0.0143902 0)
(-0.114448 0.00893624 0)
(-0.115352 0.00335529 0)
(-0.11549 -0.00228684 0)
(-0.114858 -0.0079228 0)
(-0.113458 -0.0134837 0)
(-0.111301 -0.0188994 0)
(-0.108405 -0.0240984 0)
(-0.104799 -0.0290085 0)
(-0.100519 -0.0335571 0)
(-0.0956098 -0.0376721 0)
(-0.0901274 -0.0412829 0)
(-0.0841357 -0.0443212 0)
(-0.0777086 -0.0467227 0)
(-0.0709286 -0.0484288 0)
(-0.0638875 -0.0493878 0)
(-0.0566848 -0.0495577 0)
(-0.0494274 -0.0489077 0)
(-0.0422285 -0.0474207 0)
(-0.0352062 -0.0450956 0)
(-0.0284821 -0.0419496 0)
(-0.0221798 -0.0380203 0)
(-0.0164232 -0.033368 0)
(-0.0113359 -0.0280772 0)
(-0.0070361 -0.0222586 0)
(-0.00362956 -0.0160486 0)
(-0.0012579 -0.009609 0)
(-0.00017693 -0.0031347 0)
(-0.000201707 0.00399421 0)
(-0.00140582 0.011909 0)
(-0.00401745 0.0195276 0)
(-0.00773112 0.0266774 0)
(-0.0123748 0.033222 0)
(-0.0178228 0.0390523 0)
(-0.0239416 0.0440853 0)
(-0.0305975 0.0482633 0)
(-0.0376607 0.0515507 0)
(-0.0450064 0.0539318 0)
(-0.0525144 0.0554075 0)
(-0.0600704 0.0559935 0)
(-0.0675665 0.0557172 0)
(-0.0749015 0.0546157 0)
(-0.0819813 0.0527341 0)
(-0.0887192 0.0501233 0)
(-0.0950359 0.0468391 0)
(-0.100859 0.0429409 0)
(-0.106125 0.0384907 0)
(-0.110777 0.0335527 0)
(-0.114764 0.0281928 0)
(-0.118045 0.0224783 0)
(-0.120584 0.016478 0)
(-0.122353 0.0102621 0)
(-0.12333 0.00390239 0)
(-0.123504 -0.00252791 0)
(-0.122866 -0.00895375 0)
(-0.12142 -0.0152983 0)
(-0.119174 -0.0214832 0)
(-0.116148 -0.0274285 0)
(-0.112367 -0.0330529 0)
(-0.107867 -0.0382749 0)
(-0.102695 -0.0430129 0)
(-0.096905 -0.0471865 0)
(-0.0905625 -0.0507179 0)
(-0.083743 -0.0535331 0)
(-0.0765319 -0.0555639 0)
(-0.0690246 -0.0567499 0)
(-0.0613258 -0.0570406 0)
(-0.0535487 -0.0563979 0)
(-0.0458143 -0.0547984 0)
(-0.03825 -0.052236 0)
(-0.0309881 -0.0487245 0)
(-0.0241642 -0.0442998 0)
(-0.0179159 -0.039022 0)
(-0.0123812 -0.032977 0)
(-0.00769309 -0.0262783 0)
(-0.00397198 -0.0190664 0)
(-0.00137747 -0.0115078 0)
(-0.000193848 -0.00380277 0)
(-0.000218527 0.0047386 0)
(-0.00152175 0.013997 0)
(-0.00434576 0.0228126 0)
(-0.0083563 0.0310126 0)
(-0.0133634 0.0384617 0)
(-0.0192274 0.0450526 0)
(-0.0258011 0.0507052 0)
(-0.0329376 0.0553656 0)
(-0.0404958 0.0590028 0)
(-0.0483405 0.0616064 0)
(-0.0563429 0.0631836 0)
(-0.0643813 0.0637566 0)
(-0.072342 0.0633599 0)
(-0.0801189 0.0620384 0)
(-0.0876143 0.0598446 0)
(-0.0947386 0.0568373 0)
(-0.101411 0.0530801 0)
(-0.107557 0.0486401 0)
(-0.113112 0.0435869 0)
(-0.118019 0.0379921 0)
(-0.122227 0.0319291 0)
(-0.125694 0.0254723 0)
(-0.128383 0.0186978 0)
(-0.130266 0.0116828 0)
(-0.131322 0.00450639 0)
(-0.131536 -0.00275085 0)
(-0.130901 -0.0100063 0)
(-0.129418 -0.0171754 0)
(-0.127095 -0.0241715 0)
(-0.123949 -0.030906 0)
(-0.120005 -0.0372888 0)
(-0.115299 -0.0432288 0)
(-0.109874 -0.0486346 0)
(-0.103786 -0.0534155 0)
(-0.0971008 -0.0574833 0)
(-0.0898948 -0.0607535 0)
(-0.0822557 -0.0631473 0)
(-0.0742824 -0.0645942 0)
(-0.0660845 -0.0650339 0)
(-0.0577817 -0.0644195 0)
(-0.0495029 -0.0627198 0)
(-0.0413853 -0.0599222 0)
(-0.0335724 -0.0560356 0)
(-0.0262128 -0.0510927 0)
(-0.0194581 -0.0451522 0)
(-0.0134618 -0.0383008 0)
(-0.0083727 -0.0306541 0)
(-0.00432641 -0.0223566 0)
(-0.00150135 -0.0135803 0)
(-0.000211421 -0.0045324 0)
(-0.000235781 0.00554256 0)
(-0.00164025 0.0162504 0)
(-0.00468085 0.0263541 0)
(-0.00899369 0.0356799 0)
(-0.0143703 0.0440939 0)
(-0.0206567 0.0514912 0)
(-0.0276912 0.0577956 0)
(-0.0353138 0.0629581 0)
(-0.0433711 0.0669537 0)
(-0.0517174 0.0697789 0)
(-0.0602152 0.0714485 0)
(-0.0687355 0.0719928 0)
(-0.0771584 0.0714549 0)
(-0.0853733 0.0698881 0)
(-0.0932791 0.0673539 0)
(-0.100784 0.0639197 0)
(-0.107804 0.0596575 0)
(-0.114267 0.0546427 0)
(-0.120105 0.048953 0)
(-0.125262 0.0426677 0)
(-0.129687 0.0358674 0)
(-0.133337 0.028634 0)
(-0.136176 0.0210506 0)
(-0.138175 0.0132015 0)
(-0.139313 0.00517252 0)
(-0.139575 -0.00294844 0)
(-0.138951 -0.0110715 0)
(-0.137442 -0.0191044 0)
(-0.135053 -0.0269524 0)
(-0.131801 -0.0345185 0)
(-0.127709 -0.0417033 0)
(-0.122809 -0.0484062 0)
(-0.117146 -0.0545254 0)
(-0.110773 -0.0599597 0)
(-0.103756 -0.0646093 0)
(-0.096172 -0.0683784 0)
(-0.0881106 -0.0711765 0)
(-0.0796736 -0.0729213 0)
(-0.0709755 -0.0735416 0)
(-0.0621421 -0.0729798 0)
(-0.0533107 -0.0711951 0)
(-0.0446283 -0.0681668 0)
(-0.0362504 -0.0638973 0)
(-0.0283392 -0.0584144 0)
(-0.0210614 -0.0517743 0)
(-0.0145869 -0.0440633 0)
(-0.00908132 -0.0353989 0)
(-0.00469654 -0.0259296 0)
(-0.001631 -0.0158335 0)
(-0.000229902 -0.00532619 0)
(-0.000253621 0.00640768 0)
(-0.00176221 0.0186731 0)
(-0.0050249 0.0301574 0)
(-0.009647 0.0406858 0)
(-0.0154007 0.0501256 0)
(-0.0221169 0.0583749 0)
(-0.0296191 0.0653625 0)
(-0.0377332 0.0710455 0)
(-0.0462934 0.0754067 0)
(-0.0551432 0.0784507 0)
(-0.064136 0.0802018 0)
(-0.0731354 0.0806998 0)
(-0.0820157 0.0799978 0)
(-0.090662 0.0781592 0)
(-0.09897 0.0752552 0)
(-0.106846 0.0713628 0)
(-0.114206 0.0665634 0)
(-0.120975 0.0609412 0)
(-0.127087 0.0545821 0)
(-0.132485 0.0475735 0)
(-0.13712 0.0400036 0)
(-0.140949 0.0319614 0)
(-0.143936 0.0235367 0)
(-0.146053 0.0148207 0)
(-0.147277 0.00590592 0)
(-0.147592 -0.00311302 0)
(-0.146989 -0.0121392 0)
(-0.145465 -0.0210731 0)
(-0.143025 -0.0298121 0)
(-0.139683 -0.0382508 0)
(-0.135459 -0.0462808 0)
(-0.130384 -0.0537915 0)
(-0.1245 -0.0606706 0)
(-0.117859 -0.0668055 0)
(-0.110524 -0.0720846 0)
(-0.102575 -0.0763991 0)
(-0.0941003 -0.0796459 0)
(-0.0852053 -0.0817295 0)
(-0.0760084 -0.0825658 0)
(-0.0666418 -0.0820846 0)
(-0.0572507 -0.0802339 0)
(-0.0479927 -0.0769828 0)
(-0.0390356 -0.072325 0)
(-0.030556 -0.066282 0)
(-0.0227366 -0.0589061 0)
(-0.015765 -0.0502819 0)
(-0.009825 -0.0405283 0)
(-0.0050859 -0.0297981 0)
(-0.0017678 -0.018276 0)
(-0.00024953 -0.0061875 0)
(-0.000272184 0.00733596 0)
(-0.00188839 0.0212701 0)
(-0.00537988 0.0342296 0)
(-0.0103196 0.0460383 0)
(-0.0164591 0.0565648 0)
(-0.0236135 0.0657111 0)
(-0.0315907 0.0734121 0)
(-0.0402015 0.0796324 0)
(-0.0492675 0.0843639 0)
(-0.0586211 0.0876217 0)
(-0.0681063 0.0894408 0)
(-0.0775793 0.0898726 0)
(-0.0869089 0.0889816 0)
(-0.0959762 0.0868426 0)
(-0.104674 0.0835379 0)
(-0.112908 0.0791553 0)
(-0.120593 0.0737862 0)
(-0.127654 0.0675242 0)
(-0.134027 0.060464 0)
(-0.139656 0.052701 0)
(-0.144491 0.0443311 0)
(-0.148492 0.0354501 0)
(-0.151623 0.0261546 0)
(-0.153856 0.0165421 0)
(-0.155168 0.00671144 0)
(-0.155543 -0.00323655 0)
(-0.15497 -0.0131984 0)
(-0.153445 -0.0230677 0)
(-0.150971 -0.0327344 0)
(-0.147557 -0.042085 0)
(-0.143222 -0.051002 0)
(-0.137994 -0.059365 0)
(-0.131911 -0.0670509 0)
(-0.125023 -0.0739351 0)
(-0.117392 -0.0798931 0)
(-0.109094 -0.0848027 0)
(-0.100221 -0.0885461 0)
(-0.0908778 -0.0910134 0)
(-0.0811876 -0.0921055 0)
(-0.0712882 -0.0917378 0)
(-0.061333 -0.0898445 0)
(-0.05149 -0.0863823 0)
(-0.0419399 -0.0813344 0)
(-0.0328744 -0.0747138 0)
(-0.0244938 -0.066567 0)
(-0.0170043 -0.0569761 0)
(-0.0106094 -0.0460606 0)
(-0.00549779 -0.0339773 0)
(-0.00191307 -0.0209183 0)
(-0.000270531 -0.00712035 0)
(-0.000291595 0.00832981 0)
(-0.00201953 0.0240471 0)
(-0.00574763 0.0385787 0)
(-0.0110144 0.0517464 0)
(-0.0175497 0.0634206 0)
(-0.0251514 0.0735081 0)
(-0.0336107 0.0819506 0)
(-0.042723 0.0887225 0)
(-0.0522963 0.0938264 0)
(-0.0621515 0.0972896 0)
(-0.0721233 0.0991601 0)
(-0.0820607 0.0995025 0)
(-0.0918271 0.0983948 0)
(-0.1013 0.0959247 0)
(-0.110371 0.092187 0)
(-0.118943 0.0872812 0)
(-0.126934 0.0813097 0)
(-0.134269 0.0743759 0)
(-0.140884 0.066584 0)
(-0.146727 0.0580375 0)
(-0.151749 0.0488396 0)
(-0.15591 0.0390931 0)
(-0.159178 0.0289008 0)
(-0.161525 0.0183661 0)
(-0.162927 0.00759336 0)
(-0.163368 -0.00331075 0)
(-0.162836 -0.014237 0)
(-0.161325 -0.0250725 0)
(-0.158834 -0.0357005 0)
(-0.155371 -0.0459995 0)
(-0.15095 -0.0558436 0)
(-0.145595 -0.0651024 0)
(-0.139341 -0.0736418 0)
(-0.132234 -0.0813248 0)
(-0.124332 -0.0880134 0)
(-0.11571 -0.0935704 0)
(-0.106458 -0.0978624 0)
(-0.0966835 -0.100763 0)
(-0.0865109 -0.102156 0)
(-0.0760838 -0.10194 0)
(-0.0655634 -0.100033 0)
(-0.0551283 -0.0963764 0)
(-0.0449727 -0.0909409 0)
(-0.0353044 -0.0837285 0)
(-0.0263419 -0.0747781 0)
(-0.0183121 -0.0641675 0)
(-0.01144 -0.0520161 0)
(-0.00593543 -0.0384843 0)
(-0.00206806 -0.0237723 0)
(-0.000293125 -0.00812946 0)
(-0.000311975 0.009392 0)
(-0.00215634 0.027011 0)
(-0.0061299 0.0432139 0)
(-0.0117345 0.0578204 0)
(-0.0186762 0.070703 0)
(-0.0267347 0.0817739 0)
(-0.035683 0.0909839 0)
(-0.0453003 0.0983181 0)
(-0.0553802 0.103793 0)
(-0.0657318 0.107449 0)
(-0.0761805 0.10935 0)
(-0.0865681 0.109576 0)
(-0.0967533 0.108221 0)
(-0.106611 0.105386 0)
(-0.11603 0.101181 0)
(-0.124916 0.0957182 0)
(-0.133186 0.0891113 0)
(-0.140769 0.0814748 0)
(-0.147603 0.0729221 0)
(-0.153636 0.0635652 0)
(-0.158826 0.0535147 0)
(-0.163134 0.0428798 0)
(-0.166528 0.031769 0)
(-0.168982 0.0202909 0)
(-0.170474 0.00855496 0)
(-0.170987 -0.00332732 0)
(-0.170507 -0.0152416 0)
(-0.169026 -0.0270696 0)
(-0.16654 -0.0386881 0)
(-0.163054 -0.0499688 0)
(-0.158577 -0.0607773 0)
(-0.153128 -0.0709737 0)
(-0.146737 -0.0804126 0)
(-0.139445 -0.0889444 0)
(-0.131306 -0.0964167 0)
(-0.122392 -0.102677 0)
(-0.11279 -0.107573 0)
(-0.102606 -0.110961 0)
(-0.0919689 -0.112705 0)
(-0.081025 -0.112686 0)
(-0.0699432 -0.1108 0)
(-0.0589128 -0.106973 0)
(-0.0481415 -0.101159 0)
(-0.0378542 -0.0933451 0)
(-0.0282891 -0.0835614 0)
(-0.0196955 -0.0718794 0)
(-0.012322 -0.0584171 0)
(-0.0064019 -0.0433383 0)
(-0.00223402 -0.0268515 0)
(-0.000317531 -0.00922018 0)
(-0.000333449 0.0105256 0)
(-0.00229953 0.0301693 0)
(-0.00652847 0.0481456 0)
(-0.0124826 0.0642715 0)
(-0.0198422 0.0784221 0)
(-0.0283671 0.0905168 0)
(-0.0378107 0.100516 0)
(-0.0479346 0.10842 0)
(-0.0585176 0.114258 0)
(-0.0693565 0.11809 0)
(-0.0802673 0.119996 0)
(-0.091085 0.120075 0)
(-0.101664 0.118437 0)
(-0.111877 0.115202 0)
(-0.121614 0.110493 0)
(-0.13078 0.104437 0)
(-0.139295 0.0971618 0)
(-0.147092 0.0887923 0)
(-0.154112 0.0794519 0)
(-0.160308 0.0692608 0)
(-0.16564 0.0583368 0)
(-0.170074 0.046795 0)
(-0.173579 0.0347493 0)
(-0.176132 0.0223125 0)
(-0.177712 0.00959824 0)
(-0.178301 -0.00327811 0)
(-0.177884 -0.0161981 0)
(-0.176451 -0.0290389 0)
(-0.173995 -0.041672 0)
(-0.170516 -0.0539628 0)
(-0.166018 -0.0657693 0)
(-0.160514 -0.0769421 0)
(-0.154028 -0.0873252 0)
(-0.146594 -0.0967557 0)
(-0.138261 -0.105066 0)
(-0.129095 -0.112087 0)
(-0.11918 -0.117648 0)
(-0.108621 -0.121584 0)
(-0.0975443 -0.123737 0)
(-0.086102 -0.123966 0)
(-0.074469 -0.122145 0)
(-0.0628447 -0.118179 0)
(-0.051451 -0.112 0)
(-0.0405304 -0.103582 0)
(-0.0303426 -0.0929392 0)
(-0.0211609 -0.0801363 0)
(-0.0132602 -0.0652879 0)
(-0.00690027 -0.0485605 0)
(-0.00241221 -0.0301711 0)
(-0.000343974 -0.0103985 0)
(-0.000356155 0.0117343 0)
(-0.00244989 0.0335307 0)
(-0.00694523 0.053385 0)
(-0.0132617 0.0711116 0)
(-0.0210515 0.0865889 0)
(-0.0300522 0.0997445 0)
(-0.0399962 0.110552 0)
(-0.0506262 0.119025 0)
(-0.061705 0.125215 0)
(-0.073017 0.129199 0)
(-0.0843688 0.131079 0)
(-0.0955892 0.130973 0)
(-0.106529 0.129013 0)
(-0.11706 0.125336 0)
(-0.127073 0.120084 0)
(-0.136476 0.1134 0)
(-0.145193 0.105423 0)
(-0.153161 0.0962916 0)
(-0.160327 0.0861389 0)
(-0.166649 0.0750935 0)
(-0.172091 0.0632798 0)
(-0.176623 0.0508186 0)
(-0.18022 0.0378277 0)
(-0.18286 0.0244238 0)
(-0.184522 0.0107234 0)
(-0.18519 -0.00315548 0)
(-0.184847 -0.0170914 0)
(-0.183482 -0.0309581 0)
(-0.181083 -0.0446231 0)
(-0.177645 -0.0579464 0)
(-0.173167 -0.0707792 0)
(-0.167654 -0.0829637 0)
(-0.161123 -0.0943328 0)
(-0.1536 -0.104711 0)
(-0.145126 -0.113915 0)
(-0.135761 -0.121757 0)
(-0.125581 -0.128047 0)
(-0.114689 -0.132597 0)
(-0.10321 -0.135224 0)
(-0.0912973 -0.135761 0)
(-0.0791313 -0.134058 0)
(-0.0669212 -0.129992 0)
(-0.0549032 -0.123474 0)
(-0.0433382 -0.114454 0)
(-0.0325086 -0.102934 0)
(-0.0227145 -0.0889636 0)
(-0.0142598 -0.0726542 0)
(-0.00743367 -0.0541737 0)
(-0.00260393 -0.0337476 0)
(-0.000372693 -0.0116712 0)
(-0.000380254 0.0130218 0)
(-0.00260833 0.0371046 0)
(-0.00738237 0.0589448 0)
(-0.0140753 0.0783538 0)
(-0.0223081 0.0952142 0)
(-0.0317938 0.109464 0)
(-0.0422417 0.121091 0)
(-0.053374 0.130129 0)
(-0.0649368 0.136649 0)
(-0.0767016 0.140754 0)
(-0.0884658 0.142569 0)
(-0.100053 0.142235 0)
(-0.11131 0.139908 0)
(-0.122111 0.135745 0)
(-0.132348 0.129909 0)
(-0.141935 0.122557 0)
(-0.150799 0.113846 0)
(-0.158885 0.103926 0)
(-0.166147 0.09294 0)
(-0.172548 0.0810246 0)
(-0.178059 0.0683108 0)
(-0.182656 0.0549239 0)
(-0.186318 0.0409853 0)
(-0.189026 0.026614 0)
(-0.190762 0.0119282 0)
(-0.19151 -0.00295261 0)
(-0.191254 -0.0179056 0)
(-0.189977 -0.0328026 0)
(-0.187666 -0.0475085 0)
(-0.184309 -0.0618791 0)
(-0.179897 -0.0757601 0)
(-0.17443 -0.088986 0)
(-0.167913 -0.10138 0)
(-0.160364 -0.112752 0)
(-0.151815 -0.122905 0)
(-0.142314 -0.131632 0)
(-0.131931 -0.13872 0)