/*--------------------------------*- C++ -*----------------------------------*\
  =========                 |
  \\      /  F ield         | OpenFOAM: The Open Source CFD Toolbox
   \\    /   O peration     | Website:  https://openfoam.org
    \\  /    A nd           | Version:  7
     \\/     M anipulation  |
\*---------------------------------------------------------------------------*/
FoamFile
{
    version     2.0;
    format      ascii;
    class       surfaceScalarField;
    location    "0.0256";
    object      phi;
}
// * * * * * * * * * * * * * * * * * * * * * * * * * * * * * * * * * * * * * //

dimensions      [0 3 -1 0 0 0 0];

internalField   nonuniform List<scalar> 
4900
(
5.45545e-06
-5.45547e-06
9.95476e-06
-4.49932e-06
1.26955e-05
-2.74074e-06
1.44126e-05
-1.71706e-06
1.55264e-05
-1.11388e-06
1.62762e-05
-7.49742e-07
1.68029e-05
-5.26758e-07
1.71885e-05
-3.85528e-07
1.74802e-05
-2.91727e-07
1.77066e-05
-2.264e-07
1.78856e-05
-1.79002e-07
1.8029e-05
-1.43447e-07
1.81451e-05
-1.16066e-07
1.82396e-05
-9.45397e-08
1.8317e-05
-7.73367e-08
1.83804e-05
-6.3402e-08
1.84324e-05
-5.19814e-08
1.84749e-05
-4.25183e-08
1.85095e-05
-3.45894e-08
1.85373e-05
-2.78639e-08
1.85594e-05
-2.20763e-08
1.85764e-05
-1.70078e-08
1.85889e-05
-1.24731e-08
1.85972e-05
-8.30995e-09
1.86016e-05
-4.37222e-09
1.86021e-05
-5.23533e-10
1.85987e-05
3.37048e-09
1.85913e-05
7.44284e-09
1.85794e-05
1.18359e-08
1.85627e-05
1.67045e-08
1.85405e-05
2.22249e-08
1.85119e-05
2.86041e-08
1.84758e-05
3.60939e-08
1.84308e-05
4.50092e-08
1.83751e-05
5.57557e-08
1.83062e-05
6.88711e-08
1.82211e-05
8.50885e-08
1.81157e-05
1.05439e-07
1.79842e-05
1.31426e-07
1.78189e-05
1.65324e-07
1.76082e-05
2.10738e-07
1.73345e-05
2.7366e-07
1.69699e-05
3.64559e-07
1.64674e-05
5.02521e-07
1.57445e-05
7.22929e-07
1.46552e-05
1.08935e-06
1.29446e-05
1.71052e-06
1.01624e-05
2.7822e-06
5.55776e-06
4.60467e-06
5.55776e-06
-1.18448e-07
-5.33702e-06
1.83274e-06
-6.4505e-06
4.41243e-06
-5.32043e-06
6.7243e-06
-4.02893e-06
8.598e-06
-2.98757e-06
1.0072e-05
-2.22377e-06
1.12264e-05
-1.6811e-06
1.21355e-05
-1.29469e-06
1.28584e-05
-1.01459e-06
1.34389e-05
-8.06935e-07
1.39094e-05
-6.49483e-07
1.42936e-05
-5.27619e-07
1.46091e-05
-4.31602e-07
1.48694e-05
-3.54794e-07
1.50846e-05
-2.92556e-07
1.52628e-05
-2.41555e-07
1.54101e-05
-1.99337e-07
1.55316e-05
-1.64043e-07
1.56313e-05
-1.34235e-07
1.57122e-05
-1.08769e-07
1.57768e-05
-8.67138e-08
1.58271e-05
-6.72941e-08
1.58645e-05
-4.98447e-08
1.58899e-05
-3.37792e-08
1.59041e-05
-1.85643e-08
1.59073e-05
-3.69841e-09
1.58994e-05
1.1308e-08
1.58799e-05
2.69503e-08
1.5848e-05
4.37491e-08
1.58024e-05
6.22725e-08
1.57415e-05
8.31621e-08
1.56629e-05
1.07167e-07
1.55638e-05
1.35188e-07
1.54405e-05
1.6834e-07
1.52882e-05
2.0804e-07
1.51009e-05
2.56135e-07
1.48709e-05
3.15092e-07
1.45881e-05
3.88292e-07
1.4239e-05
4.80484e-07
1.38058e-05
5.9852e-07
1.3264e-05
7.52542e-07
1.25797e-05
9.57918e-07
1.1706e-05
1.23832e-06
1.05781e-05
1.63038e-06
9.11183e-06
2.18922e-06
7.21237e-06
2.98881e-06
4.8255e-06
4.09739e-06
2.11898e-06
5.48872e-06
1.05668e-08
6.71308e-06
5.56833e-06
-1.08237e-06
-4.25465e-06
-7.55699e-07
-6.77717e-06
5.83418e-07
-6.65955e-06
2.28785e-06
-5.73336e-06
3.98838e-06
-4.6881e-06
5.52595e-06
-3.76135e-06
6.85387e-06
-3.00902e-06
7.9762e-06
-2.41702e-06
8.91602e-06
-1.95442e-06
9.70063e-06
-1.59154e-06
1.03556e-05
-1.30443e-06
1.09028e-05
-1.0749e-06
1.13607e-05
-8.89467e-07
1.17441e-05
-7.38182e-07
1.20652e-05
-6.13626e-07
1.23338e-05
-5.10205e-07
1.25581e-05
-4.2363e-07
1.27446e-05
-3.50551e-07
1.28987e-05
-2.88302e-07
1.30246e-05
-2.34717e-07
1.31259e-05
-1.88002e-07
1.32053e-05
-1.46631e-07
1.32647e-05
-1.09281e-07
1.33057e-05
-7.47702e-08
1.33291e-05
-4.20136e-08
1.33354e-05
-9.98358e-09
1.33244e-05
2.23276e-08
1.32954e-05
5.59403e-08
1.32472e-05
9.19258e-08
1.31781e-05
1.31447e-07
1.30854e-05
1.75808e-07
1.29661e-05
2.26516e-07
1.28159e-05
2.8536e-07
1.26297e-05
3.54521e-07
1.2401e-05
4.36718e-07
1.21218e-05
5.35413e-07
1.17817e-05
6.55108e-07
1.13683e-05
8.01758e-07
1.08654e-05
9.83368e-07
1.02531e-05
1.21085e-06
9.50644e-06
1.49917e-06
8.5955e-06
1.86885e-06
7.48636e-06
2.34746e-06
6.1468e-06
2.96995e-06
4.56172e-06
3.7743e-06
2.7684e-06
4.78212e-06
9.25199e-07
5.94059e-06
-5.76124e-07
6.99005e-06
-1.03943e-06
7.17638e-06
4.5289e-06
-9.13998e-07
-3.34065e-06
-1.34643e-06
-6.34474e-06
-9.4907e-07
-7.05691e-06
-1.73264e-09
-6.6807e-06
1.2003e-06
-5.89013e-06
2.45927e-06
-5.02032e-06
3.66254e-06
-4.21229e-06
4.75782e-06
-3.5123e-06
5.72783e-06
-2.92443e-06
6.57335e-06
-2.43706e-06
7.30339e-06
-2.03446e-06
7.93002e-06
-1.70153e-06
8.46577e-06
-1.42522e-06
8.92243e-06
-1.19484e-06
9.31058e-06
-1.00177e-06
9.63943e-06
-8.39061e-07
9.91694e-06
-7.01133e-07
1.01498e-05
-5.83439e-07
1.03438e-05
-4.82232e-07
1.05034e-05
-3.94381e-07
1.06326e-05
-3.17225e-07
1.07345e-05
-2.48456e-07
1.08112e-05
-1.86036e-07
1.08646e-05
-1.28116e-07
1.08955e-05
-7.29789e-08
1.09045e-05
-1.89845e-08
1.08914e-05
3.54833e-08
1.08553e-05
9.20638e-08
1.07947e-05
1.52474e-07
1.07076e-05
2.18567e-07
1.0591e-05
2.92402e-07
1.04412e-05
3.76325e-07
1.02535e-05
4.7308e-07
1.0022e-05
5.85941e-07
9.73987e-06
7.18893e-07
9.39842e-06
8.76867e-07
8.98749e-06
1.06604e-06
8.49501e-06
1.29423e-06
7.907e-06
1.57138e-06
7.20776e-06
1.91009e-06
6.38085e-06
2.32608e-06
5.41155e-06
2.83815e-06
4.29221e-06
3.4668e-06
3.03292e-06
4.22924e-06
1.6808e-06
5.12641e-06
3.50104e-07
6.11282e-06
-7.43815e-07
7.03451e-06
-1.27448e-06
7.52071e-06
-9.18108e-07
6.82001e-06
3.61079e-06
-6.66854e-07
-2.6738e-06
-1.30563e-06
-5.70596e-06
-1.43714e-06
-6.9254e-06
-1.07665e-06
-7.04119e-06
-3.77847e-07
-6.58894e-06
5.01459e-07
-5.89962e-06
1.44364e-06
-5.15447e-06
2.37337e-06
-4.44203e-06
3.24807e-06
-3.79913e-06
4.04697e-06
-3.23596e-06
4.76271e-06
-2.7502e-06
5.39556e-06
-2.33438e-06
5.94986e-06
-1.97952e-06
6.43184e-06
-1.67682e-06
6.84836e-06
-1.41829e-06
7.20624e-06
-1.19693e-06
7.51183e-06
-1.00673e-06
7.7709e-06
-8.42508e-07
7.98851e-06
-6.9984e-07
8.169e-06
-5.74874e-07
8.31601e-06
-4.6424e-07
8.4325e-06
-3.64943e-07
8.52074e-06
-2.74276e-07
8.58237e-06
-1.89744e-07
8.61839e-06
-1.08998e-07
8.62917e-06
-2.97693e-08
8.61447e-06
5.01858e-08
8.57338e-06
1.33149e-07
8.50436e-06
2.21502e-07
8.40513e-06
3.17798e-07
8.27269e-06
4.2484e-07
8.10324e-06
5.45773e-07
7.89212e-06
6.84201e-07
7.63374e-06
8.44321e-07
7.32154e-06
1.03109e-06
6.948e-06
1.25041e-06
6.50467e-06
1.50936e-06
5.98249e-06
1.81641e-06
5.37231e-06
2.18156e-06
4.66613e-06
2.61627e-06
3.8593e-06
3.13291e-06
2.95445e-06
3.743e-06
1.96806e-06
4.45319e-06
9.4059e-07
5.25671e-06
-4.9853e-08
6.11686e-06
-8.74383e-07
6.93735e-06
-1.35394e-06
7.51407e-06
-1.3044e-06
7.47117e-06
-6.88041e-07
6.20365e-06
2.92275e-06
-4.73856e-07
-2.19994e-06
-1.11122e-06
-5.06859e-06
-1.49299e-06
-6.54364e-06
-1.51212e-06
-7.02205e-06
-1.21391e-06
-6.88715e-06
-6.92957e-07
-6.42058e-06
-4.24269e-08
-5.805e-06
6.64406e-07
-5.14886e-06
1.37652e-06
-4.51125e-06
2.06149e-06
-3.92093e-06
2.70056e-06
-3.38927e-06
3.28431e-06
-2.91813e-06
3.80936e-06
-2.50456e-06
4.27601e-06
-2.14348e-06
4.68673e-06
-1.82901e-06
5.04508e-06
-1.55528e-06
5.35508e-06
-1.31673e-06
5.62079e-06
-1.10822e-06
5.84606e-06
-9.25114e-07
6.03438e-06
-7.6319e-07
6.18876e-06
-6.18622e-07
6.31172e-06
-4.87904e-07
6.40524e-06
-3.6779e-07
6.47072e-06
-2.55228e-07
6.50902e-06
-1.473e-07
6.52041e-06
-4.11615e-08
6.50458e-06
6.60217e-08
6.4606e-06
1.77132e-07
6.38693e-06
2.95169e-07
6.28141e-06
4.23318e-07
6.14122e-06
5.6503e-07
5.96288e-06
7.24109e-07
5.74228e-06
9.04807e-07
5.47466e-06
1.11193e-06
5.15479e-06
1.35096e-06
4.77708e-06
1.62813e-06
4.33597e-06
1.95047e-06
3.82658e-06
2.3258e-06
3.24572e-06
2.76242e-06
2.59363e-06
3.26836e-06
1.87664e-06
3.8499e-06
1.11113e-06
4.50851e-06
3.29016e-07
5.2353e-06
-4.15732e-07
6.00146e-06
-1.04155e-06
6.74267e-06
-1.44033e-06
7.33614e-06
-1.49751e-06
7.57125e-06
-1.14936e-06
7.12302e-06
-5.00163e-07
5.55445e-06
2.42259e-06
-3.43687e-07
-1.85626e-06
-9.15884e-07
-4.49639e-06
-1.39345e-06
-6.06607e-06
-1.63425e-06
-6.78125e-06
-1.6192e-06
-6.90221e-06
-1.38978e-06
-6.64999e-06
-1.00676e-06
-6.18802e-06
-5.28633e-07
-5.62699e-06
-3.0609e-09
-5.03682e-06
5.34725e-07
-4.45872e-06
1.06051e-06
-3.91506e-06
1.55881e-06
-3.41642e-06
2.0205e-06
-2.96626e-06
2.44098e-06
-2.56395e-06
2.81862e-06
-2.20666e-06
3.15375e-06
-1.89041e-06
3.44783e-06
-1.6108e-06
3.70293e-06
-1.36332e-06
3.92139e-06
-1.14357e-06
4.10552e-06
-9.47324e-07
4.25748e-06
-7.70578e-07
4.37911e-06
-6.09538e-07
4.47191e-06
-4.60586e-07
4.53693e-06
-3.20252e-07
4.57479e-06
-1.85159e-07
4.58561e-06
-5.19793e-08
4.56901e-06
8.26191e-08
4.52411e-06
2.22031e-07
4.44951e-06
3.69769e-07
4.3433e-06
5.29529e-07
4.20308e-06
7.05253e-07
4.026e-06
9.01195e-07
3.80882e-06
1.12198e-06
3.54811e-06
1.37265e-06
3.24037e-06
1.6587e-06
2.88246e-06
1.98604e-06
2.47212e-06
2.36081e-06
2.00882e-06
2.7891e-06
1.49499e-06
3.27625e-06
9.37797e-07
3.82555e-06
3.51574e-07
4.43613e-06
-2.3914e-07
5.09923e-06
-7.96285e-07
5.79245e-06
-1.26583e-06
6.471e-06
-1.57872e-06
7.05556e-06
-1.66016e-06
7.41757e-06
-1.45458e-06
7.36568e-06
-9.74078e-07
6.64251e-06
-3.70493e-07
4.95087e-06
2.0521e-06
-2.59309e-07
-1.59695e-06
-7.56624e-07
-3.99908e-06
-1.25386e-06
-5.56883e-06
-1.61336e-06
-6.42175e-06
-1.78528e-06
-6.73029e-06
-1.77485e-06
-6.66042e-06
-1.61411e-06
-6.34875e-06
-1.34334e-06
-5.89776e-06
-1.00095e-06
-5.37921e-06
-6.19086e-07
-4.84058e-06
-2.22587e-07
-4.31156e-06
1.70516e-07
-3.80952e-06
5.47833e-07
-3.34357e-06
9.01361e-07
-2.91748e-06
1.22635e-06
-2.53164e-06
1.52035e-06
-2.18441e-06
1.7825e-06
-1.87295e-06
2.01296e-06
-1.59379e-06
2.21251e-06
-1.34312e-06
2.38222e-06
-1.11703e-06
2.52325e-06
-9.11606e-07
2.63669e-06
-7.22975e-07
2.72344e-06
-5.47339e-07
2.78415e-06
-3.80961e-07
2.81913e-06
-2.20145e-07
2.82836e-06
-6.12079e-08
2.81142e-06
9.95624e-08
2.7675e-06
2.65945e-07
2.69544e-06
4.41831e-07
2.5937e-06
6.31267e-07
2.46046e-06
8.38494e-07
2.29368e-06
1.06798e-06
2.09125e-06
1.32441e-06
1.85117e-06
1.61272e-06
1.57192e-06
1.93796e-06
1.25283e-06
2.30513e-06
8.94762e-07
2.71887e-06
5.00994e-07
3.18287e-06
7.83746e-08
3.69887e-06
-3.61161e-07
4.26509e-06
-7.98834e-07
4.8738e-06
-1.20726e-06
5.50765e-06
-1.5493e-06
6.13449e-06
-1.77879e-06
6.7005e-06
-1.84534e-06
7.12211e-06
-1.7062e-06
7.27843e-06
-1.34868e-06
7.00816e-06
-8.23992e-07
6.11782e-06
-2.85163e-07
4.41204e-06
1.76693e-06
-2.03999e-07
-1.39295e-06
-6.34607e-07
-3.56847e-06
-1.11794e-06
-5.0855e-06
-1.53455e-06
-6.00514e-06
-1.82405e-06
-6.44079e-06
-1.97024e-06
-6.51424e-06
-1.98373e-06
-6.33526e-06
-1.88819e-06
-5.99331e-06
-1.71107e-06
-5.55633e-06
-1.47849e-06
-5.07315e-06
-1.21278e-06
-4.57727e-06
-9.31775e-07
-4.09053e-06
-6.48992e-07
-3.62636e-06
-3.74223e-07
-3.19225e-06
-1.14244e-07
-2.79162e-06
1.26502e-07
-2.42516e-06
3.45306e-07
-2.09176e-06
5.40693e-07
-1.78918e-06
7.12034e-07
-1.51446e-06
8.59231e-07
-1.26423e-06
9.82486e-07
-1.03486e-06
1.08212e-06
-8.22611e-07
1.15845e-06
-6.23667e-07
1.21168e-06
-4.34187e-07
1.24183e-06
-2.503e-07
1.24873e-06
-6.81038e-08
1.23194e-06
1.16353e-07
1.19079e-06
3.07091e-07
1.1244e-06
5.08226e-07
1.03168e-06
7.23981e-07
9.11482e-07
9.58694e-07
7.62648e-07
1.21681e-06
5.8423e-07
1.50283e-06
3.75727e-07
1.82123e-06
1.37434e-07
2.17625e-06
-1.29089e-07
2.57165e-06
-4.20394e-07
3.01018e-06
-7.30359e-07
3.49284e-06
-1.04924e-06
4.01775e-06
-1.36262e-06
4.57847e-06
-1.65043e-06
5.16161e-06
-1.88639e-06
5.74361e-06
-2.03854e-06
6.28664e-06
-2.07191e-06
6.73387e-06
-1.95468e-06
7.00488e-06
-1.66952e-06
6.99327e-06
-1.23067e-06
6.56932e-06
-7.04898e-07
5.59205e-06
-2.2837e-07
3.93551e-06
1.53856e-06
-1.66658e-07
-1.22629e-06
-5.42577e-07
-3.19255e-06
-9.99465e-07
-4.62861e-06
-1.43826e-06
-5.56635e-06
-1.7985e-06
-6.08054e-06
-2.05299e-06
-6.25976e-06
-2.19803e-06
-6.19022e-06
-2.24408e-06
-5.94725e-06
-2.20842e-06
-5.59199e-06
-2.11022e-06
-5.17135e-06
-1.96773e-06
-4.71976e-06
-1.79682e-06
-4.26143e-06
-1.61055e-06
-3.81263e-06
-1.41914e-06
-3.38366e-06
-1.23033e-06
-2.98043e-06
-1.04978e-06
-2.60571e-06
-8.81475e-07
-2.26007e-06
-7.28112e-07
-1.94254e-06
-5.9145e-07
-1.65112e-06
-4.72578e-07
-1.3831e-06
-3.72138e-07
-1.1353e-06
-2.90497e-07
-9.04251e-07
-2.27891e-07
-6.86273e-07
-1.84517e-07
-4.77562e-07
-1.60606e-07
-2.74211e-07
-1.56471e-07
-7.22391e-08
-1.72523e-07
1.32405e-07
-2.09271e-07
3.43839e-07
-2.6729e-07
5.66246e-07
-3.47164e-07
8.03855e-07
-4.49389e-07
1.06092e-06
-5.74235e-07
1.34166e-06
-7.21551e-07
1.65015e-06
-8.90504e-07
1.99018e-06
-1.07924e-06
2.36499e-06
-1.28444e-06
2.77685e-06
-1.5008e-06
3.22654e-06
-1.72043e-06
3.71246e-06
-1.93217e-06
4.22949e-06
-2.12107e-06
4.76737e-06
-2.26812e-06
5.30865e-06
-2.35058e-06
5.82607e-06
-2.34358e-06
6.27964e-06
-2.22356e-06
6.61385e-06
-1.9744e-06
6.75572e-06
-1.59668e-06
6.61555e-06
-1.11948e-06
6.09211e-06
-6.12014e-07
5.08458e-06
-1.89262e-07
3.51276e-06
1.3493e-06
-1.40576e-07
-1.08571e-06
-4.72928e-07
-2.8602e-06
-9.00547e-07
-4.20099e-06
-1.34257e-06
-5.12432e-06
-1.7431e-06
-5.68001e-06
-2.07046e-06
-5.9324e-06
-2.31224e-06
-5.94844e-06
-2.46931e-06
-5.79018e-06
-2.55047e-06
-5.51083e-06
-2.56835e-06
-5.15347e-06
-2.5366e-06
-4.75151e-06
-2.46826e-06
-4.32978e-06
-2.37484e-06
-3.90605e-06
-2.26605e-06
-3.49245e-06
-2.14974e-06
-3.09674e-06
-2.03206e-06
-2.72339e-06
-1.9177e-06
-2.37442e-06
-1.81017e-06
-2.05007e-06
-1.71204e-06
-1.74925e-06
-1.62515e-06
-1.46999e-06
-1.55081e-06
-1.20965e-06
-1.48995e-06
-9.65107e-07
-1.44327e-06
-7.32952e-07
-1.4113e-06
-5.0953e-07
-1.39449e-06
-2.91022e-07
-1.39323e-06
-7.34961e-08
-1.4079e-06
1.4707e-07
-1.43882e-06
3.74755e-07
-1.48623e-06
6.13664e-07
-1.55027e-06
8.67885e-07
-1.63077e-06
1.14143e-06
-1.72724e-06
1.43812e-06
-1.83856e-06
1.76147e-06
-1.96282e-06
2.11444e-06
-2.09697e-06
2.49914e-06
-2.23648e-06
2.91636e-06
-2.37495e-06
3.36501e-06
-2.5037e-06
3.84121e-06
-2.61143e-06
4.33722e-06
-2.68411e-06
4.84005e-06
-2.70522e-06
5.32977e-06
-2.65675e-06
5.7776e-06
-2.52118e-06
6.14408e-06
-2.28506e-06
6.37772e-06
-1.94424e-06
6.41491e-06
-1.51084e-06
6.18215e-06
-1.02068e-06
5.60195e-06
-5.39137e-07
4.60304e-06
-1.61223e-07
3.13485e-06
1.18808e-06
-1.2174e-07
-9.63974e-07
-4.19592e-07
-2.56235e-06
-8.19229e-07
-3.80136e-06
-1.2547e-06
-4.68885e-06
-1.67619e-06
-5.25851e-06
-2.05128e-06
-5.55731e-06
-2.36274e-06
-5.63699e-06
-2.60494e-06
-5.54798e-06
-2.78017e-06
-5.33559e-06
-2.89541e-06
-5.03823e-06
-2.95992e-06
-4.687e-06
-2.98358e-06
-4.30612e-06
-2.97588e-06
-3.91375e-06
-2.94536e-06
-3.52298e-06
-2.89933e-06
-3.14277e-06
-2.84388e-06
-2.77883e-06
-2.78397e-06
-2.43434e-06
-2.72348e-06
-2.11055e-06
-2.66548e-06
-1.80726e-06
-2.6123e-06
-1.52317e-06
-2.56574e-06
-1.2562e-06
-2.52717e-06
-1.00368e-06
-2.4976e-06
-7.62518e-07
-2.47783e-06
-5.29297e-07
-2.46846e-06
-3.00393e-07
-2.46993e-06
-7.2027e-08
-2.48254e-06
1.59678e-07
-2.50642e-06
3.98642e-07
-2.54154e-06
6.48775e-07
-2.58755e-06
9.13901e-07
-2.64379e-06
1.19766e-06
-2.70907e-06
1.5034e-06
-2.78154e-06
1.83395e-06
-2.8585e-06
2.19139e-06
-2.9361e-06
2.57674e-06
-3.00915e-06
2.98941e-06
-3.07083e-06
3.42669e-06
-3.11249e-06
3.88287e-06
-3.12361e-06
4.34834e-06
-3.09201e-06
4.80845e-06
-3.00442e-06
5.24217e-06
-2.84777e-06
5.62094e-06
-2.61129e-06
5.9076e-06
-2.28971e-06
6.05614e-06
-1.88737e-06
6.01257e-06
-1.42312e-06
5.7179e-06
-9.34695e-07
5.11353e-06
-4.81067e-07
4.14941e-06
-1.40308e-07
2.79409e-06
1.04777e-06
-1.0772e-07
-8.56254e-07
-3.78128e-07
-2.29194e-06
-7.52559e-07
-3.42693e-06
-1.17681e-06
-4.2646e-06
-1.60722e-06
-4.8281e-06
-2.01253e-06
-5.152e-06
-2.37323e-06
-5.27629e-06
-2.67957e-06
-5.24164e-06
-2.92908e-06
-5.08608e-06
-3.1242e-06
-4.84312e-06
-3.2703e-06
-4.5409e-06
-3.37423e-06
-4.20219e-06
-3.44325e-06
-3.84473e-06
-3.48438e-06
-3.48184e-06
-3.50405e-06
-3.1231e-06
-3.50788e-06
-2.775e-06
-3.50065e-06
-2.44157e-06
-3.48636e-06
-2.12485e-06
-3.46824e-06
-1.82537e-06
-3.44893e-06
-1.54248e-06
-3.4305e-06
-1.27463e-06
-3.41458e-06
-1.01961e-06
-3.40242e-06
-7.7467e-07
-3.39499e-06
-5.36727e-07
-3.39297e-06
-3.02415e-07
-3.39681e-06
-6.81939e-08
-3.4067e-06
1.69577e-07
-3.42263e-06
4.14568e-07
-3.44425e-06
6.70397e-07
-3.47089e-06
9.40535e-07
-3.50141e-06
1.22819e-06
-3.53414e-06
1.53613e-06
-3.56671e-06
1.86652e-06
-3.59591e-06
2.22059e-06
-3.61749e-06
2.59832e-06
-3.62606e-06
2.99798e-06
-3.61493e-06
3.41556e-06
-3.57612e-06
3.84405e-06
-3.50049e-06
4.27271e-06
-3.37816e-06
4.68612e-06
-3.19933e-06
5.06335e-06
-2.95559e-06
5.3772e-06
-2.64187e-06
5.59389e-06
-2.25909e-06
5.67336e-06
-1.81727e-06
5.57075e-06
-1.33867e-06
5.2393e-06
-8.60229e-07
4.63509e-06
-4.33952e-07
3.72313e-06
-1.24152e-07
2.48429e-06
9.23617e-07
-9.70102e-08
-7.59244e-07
-3.4539e-07
-2.04356e-06
-6.97708e-07
-3.07461e-06
-1.10889e-06
-3.85342e-06
-1.54084e-06
-4.39616e-06
-1.96432e-06
-4.72852e-06
-2.35912e-06
-4.88149e-06
-2.71303e-06
-4.88773e-06
-3.02026e-06
-4.77886e-06
-3.27975e-06
-4.58362e-06
-3.49366e-06
-4.32699e-06
-3.66609e-06
-4.02976e-06
-3.80212e-06
-3.70869e-06
-3.90718e-06
-3.37679e-06
-3.98654e-06
-3.04374e-06
-4.0451e-06
-2.71644e-06
-4.08726e-06
-2.39942e-06
-4.1168e-06
-2.09531e-06
-4.13695e-06
-1.80522e-06
-4.1504e-06
-1.52903e-06
-4.15934e-06
-1.26569e-06
-4.16555e-06
-1.0134e-06
-4.17039e-06
-7.69828e-07
-4.1749e-06
-5.32215e-07
-4.1798e-06
-2.97518e-07
-4.18549e-06
-6.24981e-08
-4.1921e-06
1.76185e-07
-4.19942e-06
4.21882e-07
-4.20687e-06
6.77856e-07
-4.21351e-06
9.4717e-07
-4.21787e-06
1.23255e-06
-4.21794e-06
1.53621e-06
-4.21105e-06
1.85962e-06
-4.19374e-06
2.20328e-06
-4.16171e-06
2.56629e-06
-4.10974e-06
2.94601e-06
-4.0317e-06
3.33751e-06
-3.92066e-06
3.73301e-06
-3.76919e-06
4.12124e-06
-3.56989e-06
4.48682e-06
-3.31626e-06
4.80972e-06
-3.00398e-06
5.06491e-06
-2.63253e-06
5.22244e-06
-2.20731e-06
5.24815e-06
-1.74185e-06
5.10528e-06
-1.25971e-06
4.75716e-06
-7.95645e-07
4.17102e-06
-3.95066e-07
3.32255e-06
-1.11306e-07
2.20053e-06
8.12311e-07
-8.86474e-08
-6.70597e-07
-3.1916e-07
-1.81305e-06
-6.52314e-07
-2.74145e-06
-1.05009e-06
-3.45564e-06
-1.47917e-06
-3.96708e-06
-1.91262e-06
-4.29507e-06
-2.33043e-06
-4.46368e-06
-2.71906e-06
-4.4991e-06
-3.07051e-06
-4.42741e-06
-3.38113e-06
-4.27301e-06
-3.65048e-06
-4.05764e-06
-3.88031e-06
-3.79993e-06
-4.07373e-06
-3.51527e-06
-4.23457e-06
-3.21595e-06
-4.36691e-06
-2.9114e-06
-4.47479e-06
-2.60855e-06
-4.56201e-06
-2.3122e-06
-4.63201e-06
-2.02532e-06
-4.6878e-06
-1.74943e-06
-4.73199e-06
-1.48484e-06
-4.76676e-06
-1.23092e-06
-4.79387e-06
-9.86283e-07
-4.81474e-06
-7.48958e-07
-4.83041e-06
-5.16554e-07
-4.84155e-06
-2.86372e-07
-4.84854e-06
-5.55104e-08
-4.85138e-06
1.79025e-07
-4.84972e-06
4.20222e-07
-4.84282e-06
6.70953e-07
-4.82949e-06
9.33849e-07
-4.8081e-06
1.21115e-06
-4.77642e-06
1.50453e-06
-4.73168e-06
1.81488e-06
-4.67042e-06
2.14202e-06
-4.58852e-06
2.4844e-06
-4.48124e-06
2.83873e-06
-4.34326e-06
3.19953e-06
-4.16893e-06
3.55869e-06
-3.95266e-06
3.90496e-06
-3.68944e-06
4.22361e-06
-3.37576e-06
4.49604e-06
-3.01066e-06
4.69982e-06
-2.59716e-06
4.80893e-06
-2.14372e-06
4.79472e-06
-1.66584e-06
4.6274e-06
-1.18708e-06
4.2784e-06
-7.3946e-07
3.7234e-06
-3.62511e-07
2.9456e-06
-1.0086e-07
1.93888e-06
7.11451e-07
-8.20007e-08
-5.88596e-07
-2.97883e-07
-1.59716e-06
-6.14518e-07
-2.42482e-06
-9.99358e-07
-3.0708e-06
-1.42306e-06
-3.54338e-06
-1.86098e-06
-3.85715e-06
-2.29377e-06
-4.03089e-06
-2.70731e-06
-4.08556e-06
-3.09217e-06
-4.04255e-06
-3.44284e-06
-3.92234e-06
-3.75687e-06
-3.74361e-06
-4.03406e-06
-3.52273e-06
-4.27579e-06
-3.27354e-06
-4.48442e-06
-3.00732e-06
-4.66286e-06
-2.73297e-06
-4.81423e-06
-2.45718e-06
-4.94165e-06
-2.18477e-06
-5.0481e-06
-1.91887e-06
-5.13628e-06
-1.66125e-06
-5.20857e-06
-1.41255e-06
-5.26703e-06
-1.17246e-06
-5.31337e-06
-9.39948e-07
-5.34892e-06
-7.13409e-07
-5.37467e-06
-4.90804e-07
-5.39126e-06
-2.69784e-07
-5.39896e-06
-4.78083e-08
-5.39768e-06
1.77751e-07
-5.38696e-06
4.09502e-07
-5.36592e-06
6.49911e-07
-5.33326e-06
9.01181e-07
-5.2872e-06
1.16509e-06
-5.2255e-06
1.44283e-06
-5.1454e-06
1.73478e-06
-5.04364e-06
2.04026e-06
-4.91649e-06
2.35725e-06
-4.75983e-06
2.68207e-06
-4.56933e-06
3.00903e-06
-4.34071e-06
3.33006e-06
-4.07015e-06
3.6344e-06
-3.75487e-06
3.90833e-06
-3.39389e-06
4.13507e-06
-2.98898e-06
4.29491e-06
-2.54574e-06
4.36568e-06
-2.07466e-06
4.32364e-06
-1.59214e-06
4.14488e-06
-1.12102e-06
3.80729e-06
-6.9048e-07
3.29286e-06
-3.34976e-07
2.5901e-06
-9.22255e-08
1.69613e-06
6.19226e-07
-7.66477e-08
-5.11948e-07
-2.80463e-07
-1.39335e-06
-5.82912e-07
-2.12237e-06
-9.557e-07
-2.69801e-06
-1.37277e-06
-3.12631e-06
-1.81155e-06
-3.41837e-06
-2.25358e-06
-3.58886e-06
-2.6846e-06
-3.65453e-06
-3.09435e-06
-3.6328e-06
-3.47599e-06
-3.5407e-06
-3.82554e-06
-3.39406e-06
-4.14126e-06
-3.20702e-06
-4.42303e-06
-2.99177e-06
-4.67193e-06
-2.75843e-06
-4.88975e-06
-2.51514e-06
-5.07874e-06
-2.2682e-06
-5.24132e-06
-2.02219e-06
-5.37992e-06
-1.78027e-06
-5.49685e-06
-1.54431e-06
-5.59425e-06
-1.31516e-06
-5.67394e-06
-1.09276e-06
-5.73749e-06
-8.76397e-07
-5.78613e-06
-6.64768e-07
-5.82076e-06
-4.56176e-07
-5.84192e-06
-2.48622e-07
-5.84981e-06
-3.99246e-08
-5.84423e-06
1.72175e-07
-5.82463e-06
3.899e-07
-5.79004e-06
6.15324e-07
-5.7391e-06
8.5024e-07
-5.67002e-06
1.09602e-06
-5.58061e-06
1.35342e-06
-5.46827e-06
1.62244e-06
-5.33004e-06
1.90203e-06
-5.16271e-06
2.18991e-06
-4.96289e-06
2.48226e-06
-4.72728e-06
2.77343e-06
-4.45296e-06
3.05574e-06
-4.13775e-06
3.31919e-06
-3.78081e-06
3.55139e-06
-3.3833e-06
3.73755e-06
-2.94907e-06
3.86068e-06
-2.48557e-06
3.90218e-06
-2.00454e-06
3.84261e-06
-1.52263e-06
3.66297e-06
-1.06156e-06
3.34622e-06
-6.47804e-07
2.8791e-06
-3.1155e-07
2.25384e-06
-8.50145e-08
1.46959e-06
5.34211e-07
-7.23009e-08
-4.39647e-07
-2.66127e-07
-1.19952e-06
-5.56451e-07
-1.83205e-06
-9.18296e-07
-2.33616e-06
-1.32828e-06
-2.71632e-06
-1.76566e-06
-2.98099e-06
-2.21289e-06
-3.14163e-06
-2.65588e-06
-3.21154e-06
-3.08387e-06
-3.2048e-06
-3.48915e-06
-3.13542e-06
-3.86658e-06
-3.01662e-06
-4.21319e-06
-2.86041e-06
-4.52767e-06
-2.67729e-06
-4.80995e-06
-2.47615e-06
-5.06085e-06
-2.26424e-06
-5.28179e-06
-2.04726e-06
-5.4745e-06
-1.82948e-06
-5.64089e-06
-1.61388e-06
-5.78284e-06
-1.40236e-06
-5.90215e-06
-1.19585e-06
-6.00043e-06
-9.94486e-07
-6.07905e-06
-7.97783e-07
-6.13908e-06
-6.04731e-07
-6.18132e-06
-4.1394e-07
-6.2062e-06
-2.23744e-07
-6.21381e-06
-3.23078e-08
-6.20391e-06
1.62266e-07
-6.17584e-06
3.61832e-07
-6.12861e-06
5.68092e-07
-6.06083e-06
7.82468e-07
-5.97079e-06
1.00597e-06
-5.85639e-06
1.23903e-06
-5.71531e-06
1.48135e-06
-5.54495e-06
1.73168e-06
-5.34267e-06
1.98763e-06
-5.10587e-06
2.24545e-06
-4.83225e-06
2.49981e-06
-4.52014e-06
2.74362e-06
-4.16885e-06
2.9679e-06
-3.77918e-06
3.16173e-06
-3.35398e-06
3.31234e-06
-2.89871e-06
3.40541e-06
-2.42208e-06
3.42556e-06
-1.93655e-06
3.35708e-06
-1.45858e-06
3.18499e-06
-1.00864e-06
2.89628e-06
-6.10778e-07
2.48123e-06
-2.91608e-07
1.93467e-06
-7.89669e-08
1.25695e-06
4.55244e-07
-6.87632e-08
-3.70884e-07
-2.54332e-07
-1.01395e-06
-5.34375e-07
-1.552e-06
-8.86506e-07
-1.98403e-06
-1.2895e-06
-2.31332e-06
-1.72417e-06
-2.54633e-06
-2.17386e-06
-2.69194e-06
-2.62476e-06
-2.76063e-06
-3.06591e-06
-2.76366e-06
-3.48896e-06
-2.71237e-06
-3.88798e-06
-2.61761e-06
-4.25901e-06
-2.48937e-06
-4.59978e-06
-2.33652e-06
-4.90928e-06
-2.16665e-06
-5.18748e-06
-1.98604e-06
-5.43505e-06
-1.79969e-06
-5.6531e-06
-1.61142e-06
-5.84301e-06
-1.42398e-06
-6.00625e-06
-1.23912e-06
-6.14429e-06
-1.05781e-06
-6.25847e-06
-8.80307e-07
-6.34995e-06
-7.06297e-07
-6.41967e-06
-5.35017e-07
-6.46826e-06
-3.65353e-07
-6.49605e-06
-1.95948e-07
-6.50306e-06
-2.52972e-08
-6.48895e-06
1.48157e-07
-6.45305e-06
3.25926e-07
-6.39432e-06
5.09368e-07
-6.31144e-06
6.99583e-07
-6.20275e-06
8.97282e-07
-6.06638e-06
1.10265e-06
-5.90024e-06
1.31521e-06
-5.7022e-06
1.53364e-06
-5.47017e-06
1.7556e-06
-5.20231e-06
1.97759e-06
-4.89727e-06
2.19478e-06
-4.55449e-06
2.40084e-06
-4.17456e-06
2.58797e-06
-3.75963e-06
2.74679e-06
-3.31387e-06
2.86658e-06
-2.84394e-06
2.93549e-06
-2.35941e-06
2.94103e-06
-1.87304e-06
2.8707e-06
-1.4009e-06
2.71286e-06
-9.62238e-07
2.45762e-06
-5.78944e-07
2.09794e-06
-2.74718e-07
1.63045e-06
-7.39066e-08
1.05614e-06
3.81338e-07
-6.58987e-08
-3.04985e-07
-2.44697e-07
-8.35155e-07
-5.1614e-07
-1.28056e-06
-8.59855e-07
-1.64032e-06
-1.25634e-06
-1.91684e-06
-1.68769e-06
-2.11498e-06
-2.13806e-06
-2.24157e-06
-2.59399e-06
-2.30471e-06
-3.04441e-06
-2.31324e-06
-3.48062e-06
-2.27615e-06
-3.89608e-06
-2.20215e-06
-4.28611e-06
-2.09934e-06
-4.64764e-06
-1.97499e-06
-4.97893e-06
-1.83537e-06
-5.27922e-06
-1.68575e-06
-5.54853e-06
-1.53038e-06
-5.78741e-06
-1.37254e-06
-5.99678e-06
-1.21461e-06
-6.17772e-06
-1.05818e-06
-6.33136e-06
-9.04163e-07
-6.45881e-06
-7.52858e-07
-6.56102e-06
-6.0409e-07
-6.63874e-06
-4.57294e-07
-6.69249e-06
-3.11603e-07
-6.7225e-06
-1.65942e-07
-6.72869e-06
-1.91095e-08
-6.71067e-06
1.30135e-07
-6.66773e-06
2.82988e-07
-6.59887e-06
4.40505e-07
-6.50279e-06
6.03508e-07
-6.37798e-06
7.72477e-07
-6.22276e-06
9.4743e-07
-6.03535e-06
1.1278e-06
-5.81402e-06
1.31231e-06
-5.55725e-06
1.49883e-06
-5.26388e-06
1.68423e-06
-4.93341e-06
1.8643e-06
-4.56624e-06
2.03367e-06
-4.16401e-06
2.18574e-06
-3.72996e-06
2.31274e-06
-3.26929e-06
2.40591e-06
-2.78951e-06
2.45572e-06
-2.30073e-06
2.45225e-06
-1.8158e-06
2.38577e-06
-1.3503e-06
2.24736e-06
-9.22337e-07
2.02965e-06
-5.51991e-07
1.72759e-06
-2.60588e-07
1.33905e-06
-6.97137e-08
8.65266e-07
3.11624e-07
-6.3614e-08
-2.41371e-07
-2.3696e-07
-6.6181e-07
-5.01365e-07
-1.01615e-06
-8.38006e-07
-1.30368e-06
-1.22873e-06
-1.52611e-06
-1.65667e-06
-1.68704e-06
-2.10668e-06
-1.79156e-06
-2.56561e-06
-1.84578e-06
-3.02242e-06
-1.85643e-06
-3.46818e-06
-1.83039e-06
-3.8959e-06
-1.77443e-06
-4.30039e-06
-1.69486e-06
-4.67797e-06
-1.5974e-06
-5.02629e-06
-1.48705e-06
-5.344e-06
-1.36803e-06
-5.6306e-06
-1.24378e-06
-5.88617e-06
-1.11697e-06
-6.11119e-06
-9.8958e-07
-6.30642e-06
-8.62953e-07
-6.47271e-06
-7.37876e-07
-6.61091e-06
-6.14659e-07
-6.72178e-06
-4.93215e-07
-6.80594e-06
-3.7314e-07
-6.86376e-06
-2.53782e-07
-6.89538e-06
-1.34322e-07
-6.90065e-06
-1.38371e-08
-6.87914e-06
1.08625e-07
-6.83013e-06
2.33976e-07
-6.75263e-06
3.63005e-07
-6.64543e-06
4.96305e-07
-6.50713e-06
6.34181e-07
-6.33626e-06
7.76554e-07
-6.13132e-06
9.22867e-07
-5.89098e-06
1.07198e-06
-5.61421e-06
1.22205e-06
-5.30045e-06
1.37047e-06
-4.94992e-06
1.51377e-06
-4.56382e-06
1.64757e-06
-4.14463e-06
1.76655e-06
-3.69644e-06
1.86456e-06
-3.22523e-06
1.93471e-06
-2.73911e-06
1.9696e-06
-2.2485e-06
1.96164e-06
-1.76621e-06
1.90348e-06
-1.30733e-06
1.78848e-06
-8.88967e-07
1.61129e-06
-5.29717e-07
1.36834e-06
-2.49018e-07
1.05835e-06
-6.6307e-08
6.82555e-07
2.45317e-07
-6.18453e-08
-1.79526e-07
-2.30937e-07
-4.92717e-07
-4.89785e-07
-7.57306e-07
-8.20728e-07
-9.72735e-07
-1.20664e-06
-1.1402e-06
-1.63146e-06
-1.26222e-06
-2.0806e-06
-1.34242e-06
-2.5412e-06
-1.38518e-06
-3.00228e-06
-1.39534e-06
-3.45477e-06
-1.37791e-06
-3.89138e-06
-1.33781e-06
-4.30654e-06
-1.2797e-06
-4.69613e-06
-1.20782e-06
-5.0573e-06
-1.12588e-06
-5.3883e-06
-1.03704e-06
-5.68816e-06
-9.43919e-07
-5.95659e-06
-8.48538e-07
-6.19375e-06
-7.52423e-07
-6.40008e-06
-6.56617e-07
-6.57621e-06
-5.61751e-07
-6.72277e-06
-4.68092e-07
-6.84038e-06
-3.75607e-07
-6.9295e-06
-2.84022e-07
-6.99041e-06
-1.92875e-07
-7.02315e-06
-1.01576e-07
-7.02753e-06
-9.45538e-09
-7.00308e-06
8.41743e-08
-6.94907e-06
1.79967e-07
-6.86455e-06
2.78484e-07
-6.74838e-06
3.80127e-07
-6.59927e-06
4.85079e-07
-6.41595e-06
5.93225e-07
-6.19716e-06
7.04085e-07
-5.94192e-06
8.1673e-07
-5.64959e-06
9.29719e-07
-5.32013e-06
1.04102e-06
-4.95434e-06
1.14798e-06
-4.55403e-06
1.24725e-06
-4.12235e-06
1.33487e-06
-3.66404e-06
1.40625e-06
-3.18562e-06
1.45629e-06
-2.69561e-06
1.47958e-06
-2.20462e-06
1.47065e-06
-1.72535e-06
1.42421e-06
-1.27244e-06
1.33558e-06
-8.62176e-07
1.20102e-06
-5.11994e-07
1.01816e-06
-2.39878e-07
7.86231e-07
-6.36316e-08
5.06308e-07
1.81685e-07
-6.05498e-08
-1.18976e-07
-2.26508e-07
-3.26759e-07
-4.81226e-07
-5.02588e-07
-8.07872e-07
-6.46089e-07
-1.19006e-06
-7.58009e-07
-1.61232e-06
-8.39963e-07
-2.06048e-06
-8.94265e-07
-2.52192e-06
-9.23742e-07
-2.98573e-06
-9.31531e-07
-3.44274e-06
-9.20893e-07
-3.8855e-06
-8.95051e-07
-4.30814e-06
-8.57062e-07
-4.70624e-06
-8.0972e-07
-5.07662e-06
-7.55494e-07
-5.41717e-06
-6.96494e-07
-5.72663e-06
-6.34456e-07
-6.00442e-06
-5.70754e-07
-6.25042e-06
-5.06417e-07
-6.46488e-06
-4.42161e-07
-6.64821e-06
-3.78422e-07
-6.8009e-06
-3.15397e-07
-6.92343e-06
-2.53079e-07
-7.01616e-06
-1.91298e-07
-7.07927e-06
-1.29761e-07
-7.11276e-06
-6.80855e-08
-7.11638e-06
-5.83782e-09
-7.08963e-06
5.74282e-08
-7.0318e-06
1.22134e-07
-6.94195e-06
1.88637e-07
-6.81901e-06
2.57185e-07
-6.66181e-06
3.27877e-07
-6.46919e-06
4.00611e-07
-6.24014e-06
4.75034e-07
-5.97391e-06
5.50496e-07
-5.67019e-06
6.26003e-07
-5.32934e-06
7.00172e-07
-4.95257e-06
7.712e-07
-4.54217e-06
8.36854e-07
-4.10177e-06
8.94478e-07
-3.63655e-06
9.4103e-07
-3.15343e-06
9.73161e-07
-2.66118e-06
9.87335e-07
-2.17051e-06
9.79984e-07
-1.69402e-06
9.47712e-07
-1.24597e-06
8.87525e-07
-8.42018e-07
7.97073e-07
-4.98747e-07
6.74888e-07
-2.33081e-07
5.20565e-07
-6.16509e-08
3.34878e-07
1.20034e-07
-5.96997e-08
-5.92766e-08
-2.23594e-07
-1.62864e-07
-4.75574e-07
-2.50608e-07
-7.99344e-07
-3.22319e-07
-1.17899e-06
-3.78358e-07
-1.59945e-06
-4.1951e-07
-2.04681e-06
-4.46907e-07
-2.50862e-06
-4.61932e-07
-2.97402e-06
-4.66128e-07
-3.43381e-06
-4.61102e-07
-3.88042e-06
-4.48448e-07
-4.3078e-06
-4.29679e-07
-4.71134e-06
-4.06184e-07
-5.08764e-06
-3.79194e-07
-5.43437e-06
-3.49763e-07
-5.75006e-06
-3.18761e-07
-6.03394e-06
-2.86878e-07
-6.28572e-06
-2.54635e-07
-6.50548e-06
-2.22394e-07
-6.69353e-06
-1.90379e-07
-6.85023e-06
-1.58692e-07
-6.97598e-06
-1.27336e-07
-7.07104e-06
-9.62297e-08
-7.13557e-06
-6.52304e-08
-7.16951e-06
-3.41503e-08
-7.17257e-06
-2.77679e-09
-7.14425e-06
2.91094e-08
-7.08383e-06
6.17147e-08
-6.99041e-06
9.52122e-08
-6.86294e-06
1.29721e-07
-6.70035e-06
1.65282e-07
-6.50157e-06
2.01836e-07