/*--------------------------------*- C++ -*----------------------------------*\
  =========                 |
  \\      /  F ield         | OpenFOAM: The Open Source CFD Toolbox
   \\    /   O peration     | Website:  https://openfoam.org
    \\  /    A nd           | Version:  7
     \\/     M anipulation  |
\*---------------------------------------------------------------------------*/
FoamFile
{
    version     2.0;
    format      ascii;
    class       surfaceScalarField;
    location    "0.0772";
    object      phi;
}
// * * * * * * * * * * * * * * * * * * * * * * * * * * * * * * * * * * * * * //

dimensions      [0 3 -1 0 0 0 0];

internalField   nonuniform List<scalar> 
4900
(
1.15224e-09
-1.15232e-09
2.34033e-09
-1.18816e-09
2.41455e-09
-7.4233e-11
9.64237e-10
1.45036e-09
-2.09025e-09
3.05452e-09
-6.66491e-09
4.57467e-09
-1.25944e-08
5.92946e-09
-1.96767e-08
7.0823e-09
-2.76965e-08
8.01983e-09
-3.64369e-08
8.74041e-09
-4.56857e-08
9.24877e-09
-5.5239e-08
9.55332e-09
-6.49037e-08
9.66468e-09
-7.44985e-08
9.59478e-09
-8.38548e-08
9.35635e-09
-9.28174e-08
8.96254e-09
-1.01244e-07
8.42677e-09
-1.09007e-07
7.76255e-09
-1.1599e-07
6.9835e-09
-1.22094e-07
6.1033e-09
-1.27229e-07
5.13572e-09
-1.31324e-07
4.09474e-09
-1.34319e-07
2.99451e-09
-1.36168e-07
1.8495e-09
-1.36843e-07
6.74527e-10
-1.36327e-07
-5.1513e-10
-1.34624e-07
-1.70375e-09
-1.31749e-07
-2.87514e-09
-1.27736e-07
-4.01262e-09
-1.22637e-07
-5.09911e-09
-1.1652e-07
-6.11716e-09
-1.09471e-07
-7.0491e-09
-1.01593e-07
-7.87721e-09
-9.30094e-08
-8.58392e-09
-8.38574e-08
-9.15199e-09
-7.42926e-08
-9.56485e-09
-6.44857e-08
-9.80691e-09
-5.46219e-08
-9.86383e-09
-4.48988e-08
-9.72303e-09
-3.55248e-08
-9.37405e-09
-2.67155e-08
-8.80922e-09
-1.8691e-08
-8.02452e-09
-1.16699e-08
-7.02099e-09
-5.86271e-09
-5.80722e-09
-1.4582e-09
-4.40452e-09
1.4004e-09
-2.8586e-09
2.65845e-09
-1.25805e-09
2.4182e-09
2.40249e-10
1.14824e-09
1.26996e-09
1.14826e-09
1.20046e-09
-2.35286e-09
1.35436e-09
-1.34204e-09
-1.2083e-09
2.48848e-09
-7.27279e-09
7.51487e-09
-1.70798e-08
1.28615e-08
-3.05205e-08
1.80155e-08
-4.72784e-08
2.26874e-08
-6.69175e-08
2.67214e-08
-8.89382e-08
3.00406e-08
-1.12812e-07
3.26146e-08
-1.38006e-07
3.44425e-08
-1.63994e-07
3.55414e-08
-1.9027e-07
3.59404e-08
-2.16351e-07
3.56764e-08
-2.41786e-07
3.47913e-08
-2.66154e-07
3.33303e-08
-2.89068e-07
3.13409e-08
-3.10178e-07
2.88719e-08
-3.29167e-07
2.59734e-08
-3.4576e-07
2.26962e-08
-3.59717e-07
1.90919e-08
-3.70835e-07
1.52132e-08
-3.78954e-07
1.11135e-08
-3.83952e-07
6.84762e-09
-3.85749e-07
2.47173e-09
-3.84308e-07
-1.95653e-09
-3.79634e-07
-6.37795e-09
-3.71777e-07
-1.07317e-08
-3.60834e-07
-1.49554e-08
-3.46948e-07
-1.89855e-08
-3.30308e-07
-2.27574e-08
-3.11151e-07
-2.62061e-08
-2.89761e-07
-2.92666e-08
-2.6647e-07
-3.18753e-08
-2.41652e-07
-3.39701e-08
-2.15725e-07
-3.54921e-08
-1.89145e-07
-3.63867e-08
-1.62404e-07
-3.66051e-08
-1.36021e-07
-3.6106e-08
-1.10537e-07
-3.4858e-08
-8.65042e-08
-3.2842e-08
-6.44731e-08
-3.00556e-08
-4.4975e-08
-2.65192e-08
-2.84969e-08
-2.22853e-08
-1.54454e-08
-1.7456e-08
-6.09227e-09
-1.22118e-08
-4.87066e-10
-6.86326e-09
1.69452e-09
-1.94132e-09
1.28143e-09
1.68307e-09
2.42969e-09
1.33565e-10
-2.48637e-09
-2.38147e-09
1.17304e-09
-9.15104e-09
9.25808e-09
-2.09855e-08
1.93493e-08
-3.81361e-08
3.00121e-08
-6.0458e-08
4.03373e-08
-8.75331e-08
4.97625e-08
-1.18768e-07
5.79563e-08
-1.53463e-07
6.47355e-08
-1.90861e-07
7.00131e-08
-2.30184e-07
7.37652e-08
-2.70654e-07
7.60108e-08
-3.11511e-07
7.67976e-08
-3.52028e-07
7.61933e-08
-3.91515e-07
7.42789e-08
-4.2933e-07
7.11448e-08
-4.64877e-07
6.68882e-08
-4.97616e-07
6.16105e-08
-5.27059e-07
5.54168e-08
-5.52778e-07
4.84149e-08
-5.74401e-07
4.07149e-08
-5.91617e-07
3.24294e-08
-6.04177e-07
2.36733e-08
-6.11894e-07
1.45643e-08
-6.14645e-07
5.22318e-09
-6.12375e-07
-4.2264e-09
-6.05096e-07
-1.36575e-08
-5.92888e-07
-2.29399e-08
-5.75902e-07
-3.19407e-08
-5.54363e-07
-4.05248e-08
-5.28565e-07
-4.85551e-08
-4.98877e-07
-5.58947e-08
-4.65736e-07
-6.24071e-08
-4.29652e-07
-6.79589e-08
-3.91201e-07
-7.24216e-08
-3.51019e-07
-7.56739e-08
-3.09801e-07
-7.76048e-08
-2.68289e-07
-7.8117e-08
-2.27264e-07
-7.7131e-08
-1.87532e-07
-7.45898e-08
-1.49908e-07
-7.04659e-08
-1.15194e-07
-6.47695e-08
-8.41518e-08
-5.75618e-08
-5.74638e-08
-4.89733e-08
-3.56851e-08
-3.92346e-08
-1.91732e-08
-2.87237e-08
-7.9929e-09
-1.80435e-08
-1.80409e-09
-8.13013e-09
3.02348e-10
-4.23363e-10
2.73203e-09
-1.34961e-09
-1.13674e-09
-7.3352e-09
7.15867e-09
-1.91795e-08
2.11024e-08
-3.74953e-08
3.76652e-08
-6.24191e-08
5.49359e-08
-9.3707e-08
7.16251e-08
-1.30831e-07
8.68864e-08
-1.73064e-07
1.00189e-07
-2.19549e-07
1.1122e-07
-2.6935e-07
1.19814e-07
-3.21496e-07
1.25911e-07
-3.75007e-07
1.29522e-07
-4.28922e-07
1.30712e-07
-4.8231e-07
1.29581e-07
-5.34287e-07
1.26256e-07
-5.84022e-07
1.2088e-07
-6.30747e-07
1.13613e-07
-6.73758e-07
1.04622e-07
-7.12423e-07
9.40821e-08
-7.46184e-07
8.21752e-08
-7.74556e-07
6.9087e-08
-7.97134e-07
5.50083e-08
-8.13596e-07
4.01343e-08
-8.23697e-07
2.46653e-08
-8.2728e-07
8.80647e-09
-8.24274e-07
-7.23187e-09
-8.14698e-07
-2.32342e-08
-7.98658e-07
-3.89801e-08
-7.76354e-07
-5.42446e-08
-7.48079e-07
-6.87997e-08
-7.14219e-07
-8.24152e-08
-6.75253e-07
-9.48608e-08
-6.31751e-07
-1.05909e-07
-5.84372e-07
-1.15338e-07
-5.3386e-07
-1.22934e-07
-4.81035e-07
-1.28498e-07
-4.26789e-07
-1.31851e-07
-3.72071e-07
-1.32835e-07
-3.17874e-07
-1.31328e-07
-2.65218e-07
-1.27246e-07
-2.15127e-07
-1.20556e-07
-1.68603e-07
-1.11293e-07
-1.26589e-07
-9.95763e-08
-8.9924e-08
-8.56383e-08
-5.92921e-08
-6.98665e-08
-3.51518e-08
-5.2864e-08
-1.76545e-08
-3.55408e-08
-6.55376e-09
-1.92309e-08
-1.12137e-09
-5.85576e-09
1.61066e-09
-2.93693e-09
1.80021e-09
-1.27401e-08
1.69618e-08
-3.00905e-08
3.84529e-08
-5.52821e-08
6.28567e-08
-8.82364e-08
8.78902e-08
-1.2855e-07
1.11939e-07
-1.75556e-07
1.33893e-07
-2.28394e-07
1.53027e-07
-2.86062e-07
1.68889e-07
-3.47475e-07
1.81227e-07
-4.115e-07
1.89936e-07
-4.76993e-07
1.95015e-07
-5.42823e-07
1.96543e-07
-6.07895e-07
1.94653e-07
-6.7116e-07
1.89521e-07
-7.31633e-07
1.81353e-07
-7.88398e-07
1.70378e-07
-8.40618e-07
1.56841e-07
-8.87535e-07
1.41e-07
-9.28482e-07
1.23122e-07
-9.62879e-07
1.03485e-07
-9.90243e-07
8.23721e-08
-1.01018e-06
6.00761e-08
-1.02242e-06
3.68958e-08
-1.02675e-06
1.31378e-08
-1.0231e-06
-1.08834e-08
-1.01148e-06
-3.48462e-08
-9.92041e-07
-5.84219e-08
-9.6501e-07
-8.12759e-08
-9.30741e-07
-1.03069e-07
-8.89696e-07
-1.2346e-07
-8.42448e-07
-1.42109e-07
-7.89678e-07
-1.58679e-07
-7.3217e-07
-1.72845e-07
-6.70809e-07
-1.84295e-07
-6.06569e-07
-1.92739e-07
-5.40504e-07
-1.97916e-07
-4.73735e-07
-1.99604e-07
-4.07432e-07
-1.97632e-07
-3.42791e-07
-1.91887e-07
-2.81011e-07
-1.82336e-07
-2.23261e-07
-1.69044e-07
-1.70639e-07
-1.52199e-07
-1.24129e-07
-1.32148e-07
-8.45497e-08
-1.09446e-07
-5.24913e-08
-8.49225e-08
-2.82537e-08
-5.97784e-08
-1.17879e-08
-3.56968e-08
-2.65305e-09
-1.49906e-08
-1.04238e-09
-4.50394e-09
6.30416e-09
-1.81987e-08
3.06565e-08
-4.12077e-08
6.14618e-08
-7.34391e-08
9.50882e-08
-1.14537e-07
1.28988e-07
-1.63887e-07
1.61289e-07
-2.20655e-07
1.90661e-07
-2.83828e-07
2.162e-07
-3.52264e-07
2.37324e-07
-4.24734e-07
2.53697e-07
-4.99965e-07
2.65167e-07
-5.7667e-07
2.7172e-07
-6.53575e-07
2.73448e-07
-7.29443e-07
2.70521e-07
-8.03092e-07
2.63169e-07
-8.73403e-07
2.51665e-07
-9.39339e-07
2.36314e-07
-9.99947e-07
2.17449e-07
-1.05437e-06
1.9542e-07
-1.10184e-06
1.70594e-07
-1.1417e-06
1.4335e-07
-1.17341e-06
1.14078e-07
-1.19652e-06
8.31806e-08
-1.21069e-06
5.10695e-08
-1.21572e-06
1.81673e-08
-1.21151e-06
-1.50934e-08
-1.19809e-06
-4.82697e-08
-1.1756e-06
-8.09098e-08
-1.14432e-06
-1.12554e-07
-1.10465e-06
-1.42738e-07
-1.05712e-06
-1.70994e-07
-1.00237e-06
-1.96858e-07
-9.41176e-07
-2.1987e-07
-8.74434e-07
-2.39587e-07
-8.03141e-07
-2.55587e-07
-7.28401e-07
-2.67479e-07
-6.51406e-07
-2.74911e-07
-5.73421e-07
-2.77589e-07
-4.95766e-07
-2.75287e-07
-4.1979e-07
-2.67862e-07
-3.46845e-07
-2.55281e-07
-2.78248e-07
-2.3764e-07
-2.15248e-07
-2.15199e-07
-1.58975e-07
-1.88421e-07
-1.10399e-07
-1.58022e-07
-7.02757e-08
-1.25046e-07
-3.91053e-08
-9.09488e-08
-1.70983e-08
-5.77037e-08
-4.17168e-09
-2.79172e-08
-5.21404e-09
-6.00011e-09
1.23043e-08
-2.35267e-08
4.81831e-08
-5.21811e-08
9.01162e-08
-9.14673e-08
1.34374e-07
-1.40717e-07
1.78237e-07
-1.99071e-07
2.19644e-07
-2.65498e-07
2.57088e-07
-3.38815e-07
2.89517e-07
-4.17729e-07
3.16238e-07
-5.00872e-07
3.3684e-07
-5.86836e-07
3.51131e-07
-6.74203e-07
3.59087e-07
-7.61575e-07
3.6082e-07
-8.47593e-07
3.56539e-07
-9.30954e-07
3.46531e-07
-1.01043e-06
3.31143e-07
-1.08489e-06
3.10767e-07
-1.15326e-06
2.85827e-07
-1.21462e-06
2.56777e-07
-1.26812e-06
2.24092e-07
-1.31303e-06
1.88262e-07
-1.34875e-06
1.49796e-07
-1.37478e-06
1.09216e-07
-1.39077e-06
6.70591e-08
-1.39648e-06
2.38748e-08
-1.3918e-06
-1.97736e-08
-1.37676e-06
-6.33103e-08
-1.35152e-06
-1.06148e-07
-1.31639e-06
-1.47689e-07
-1.27179e-06
-1.87332e-07
-1.21832e-06
-2.24469e-07
-1.15668e-06
-2.585e-07
-1.08772e-06
-2.8883e-07
-1.01241e-06
-3.14888e-07
-9.31874e-07
-3.36129e-07
-8.47304e-07
-3.52048e-07
-7.60015e-07
-3.62199e-07
-6.714e-07
-3.66205e-07
-5.8291e-07
-3.63777e-07
-4.96032e-07
-3.5474e-07
-4.12259e-07
-3.39055e-07
-3.33054e-07
-3.16845e-07
-2.59815e-07
-2.88438e-07
-1.93832e-07
-2.54404e-07
-1.36245e-07
-2.15608e-07
-8.80088e-08
-1.73282e-07
-4.9858e-08
-1.291e-07
-2.22986e-08
-8.52631e-08
-5.6255e-09
-4.45903e-08
-1.08395e-08
-7.41439e-09
1.97187e-08
-2.86579e-08
6.94266e-08
-6.28617e-08
1.2432e-07
-1.09134e-07
1.80646e-07
-1.6648e-07
2.35583e-07
-2.33775e-07
2.8694e-07
-3.09767e-07
3.33079e-07
-3.93086e-07
3.72836e-07
-4.82278e-07
4.0543e-07
-5.75828e-07
4.30391e-07
-6.72197e-07
4.47499e-07
-7.69842e-07
4.56733e-07
-8.67249e-07
4.58227e-07
-9.62948e-07
4.52238e-07
-1.05554e-06
4.39119e-07
-1.14369e-06
4.19296e-07
-1.22618e-06
3.93253e-07
-1.30187e-06
3.61518e-07
-1.36974e-06
3.24652e-07
-1.42889e-06
2.83246e-07
-1.47855e-06
2.37913e-07
-1.51804e-06
1.89288e-07
-1.54684e-06
1.38022e-07
-1.56457e-06
8.4786e-08
-1.57096e-06
3.02662e-08
-1.5659e-06
-2.4834e-08
-1.54942e-06
-7.97957e-08
-1.52168e-06
-1.33886e-07
-1.48301e-06
-1.86361e-07
-1.43387e-06
-2.36468e-07
-1.37489e-06
-2.83452e-07
-1.30683e-06
-3.26563e-07
-1.23059e-06
-3.65064e-07
-1.14724e-06
-3.98241e-07
-1.05795e-06
-4.25418e-07
-9.6403e-07
-4.45968e-07
-8.66895e-07
-4.59335e-07
-7.68047e-07
-4.65053e-07
-6.6906e-07
-4.62764e-07
-5.71552e-07
-4.52249e-07
-4.77153e-07
-4.33454e-07
-3.87474e-07
-4.06524e-07
-3.04072e-07
-3.71841e-07
-2.28408e-07
-3.30067e-07
-1.61817e-07
-2.822e-07
-1.05472e-07
-2.29627e-07
-6.0369e-08
-1.74203e-07
-2.73241e-08
-1.18308e-07
-7.00238e-09
-6.4912e-08
-1.78419e-08
-8.75356e-09
2.84722e-08
-3.35873e-08
9.42604e-08
-7.3215e-08
1.63948e-07
-1.26368e-07
2.33799e-07
-1.91725e-07
3.0094e-07
-2.67885e-07
3.63099e-07
-3.53357e-07
4.18551e-07
-4.46573e-07
4.66051e-07
-5.45902e-07
5.04759e-07
-6.49681e-07
5.34169e-07
-7.5623e-07
5.54049e-07
-8.63889e-07
5.64391e-07
-9.71029e-07
5.65367e-07
-1.07608e-06
5.5729e-07
-1.17755e-06
5.40586e-07
-1.27402e-06
5.1577e-07
-1.36419e-06
4.83424e-07
-1.44686e-06
4.44187e-07
-1.52095e-06
3.98738e-07
-1.58549e-06
3.4779e-07
-1.63966e-06
2.92085e-07
-1.68277e-06
2.32391e-07
-1.71424e-06
1.69496e-07
-1.73367e-06
1.04212e-07
-1.74077e-06
3.73699e-08
-1.73543e-06
-3.01801e-08
-1.71765e-06
-9.75682e-08
-1.68763e-06
-1.63908e-07
-1.64569e-06
-2.283e-07
-1.59233e-06
-2.89833e-07
-1.52818e-06
-3.47595e-07
-1.45407e-06
-4.00679e-07
-1.37094e-06
-4.48191e-07
-1.27991e-06
-4.89268e-07
-1.18224e-06
-5.2309e-07
-1.07931e-06
-5.48898e-07
-9.7263e-07
-5.66016e-07
-8.63806e-07
-5.73876e-07
-7.5453e-07
-5.7204e-07
-6.46545e-07
-5.60233e-07
-5.41622e-07
-5.38376e-07
-4.41527e-07
-5.06619e-07
-3.47983e-07
-4.65384e-07
-2.62643e-07
-4.15408e-07
-1.8705e-07
-3.57793e-07
-1.22618e-07
-2.94058e-07
-7.06172e-08
-2.26203e-07
-3.21754e-08
-1.5675e-07
-8.31027e-09
-8.87771e-08
-2.61522e-08
-1.00311e-08
3.85034e-08
-3.83403e-08
1.2257e-07
-8.32686e-08
2.08876e-07
-1.43193e-07
2.93724e-07
-2.16472e-07
3.7422e-07
-3.01421e-07
4.48048e-07
-3.96304e-07
5.13434e-07
-4.99339e-07
5.69086e-07
-6.08713e-07
6.14133e-07
-7.22599e-07
6.48055e-07
-8.39182e-07
6.70632e-07
-9.56674e-07
6.81884e-07
-1.07334e-06
6.82034e-07
-1.18752e-06
6.71464e-07
-1.29762e-06
6.50686e-07
-1.40216e-06
6.2031e-07
-1.49976e-06
5.8103e-07
-1.58917e-06
5.33598e-07
-1.66925e-06
4.78819e-07
-1.739e-06
4.17537e-07
-1.79754e-06
3.50628e-07
-1.84415e-06
2.78999e-07
-1.87824e-06
2.03582e-07
-1.89936e-06
1.25333e-07
-1.90722e-06
4.52342e-08
-1.90169e-06
-3.57114e-08
-1.88278e-06
-1.16478e-07
-1.85067e-06
-1.96019e-07
-1.8057e-06
-2.73273e-07
-1.74837e-06
-3.47164e-07
-1.67935e-06
-4.16615e-07
-1.59947e-06
-4.80551e-07
-1.50975e-06
-5.37915e-07
-1.41134e-06
-5.87683e-07
-1.30554e-06
-6.2888e-07
-1.19384e-06
-6.60604e-07
-1.07781e-06
-6.82045e-07
-9.59167e-07
-6.9252e-07
-8.3971e-07
-6.91496e-07
-7.21314e-07
-6.7863e-07
-6.05894e-07
-6.53797e-07
-4.95376e-07
-6.17137e-07
-3.91668e-07
-5.69093e-07
-2.96622e-07
-5.10453e-07
-2.12012e-07
-4.42403e-07
-1.39504e-07
-3.66566e-07
-8.06494e-08
-2.85058e-07
-3.68868e-08
-2.00512e-07
-9.56512e-09
-1.16099e-07
-3.57173e-08
-1.12626e-08
4.9766e-08
-4.29556e-08
1.54262e-07
-9.30819e-08
2.59002e-07
-1.59684e-07
3.60326e-07
-2.40809e-07
4.55344e-07
-3.34487e-07
5.41726e-07
-4.38729e-07
6.17676e-07
-5.51532e-07
6.8189e-07
-6.70889e-07
7.33491e-07
-7.94808e-07
7.71975e-07
-9.21327e-07
7.97151e-07
-1.04854e-06
8.09092e-07
-1.17459e-06
8.08087e-07
-1.29773e-06
7.94602e-07
-1.41628e-06
7.69245e-07
-1.52871e-06
7.32738e-07
-1.63357e-06
6.85888e-07
-1.72955e-06
6.29577e-07
-1.81547e-06
5.64739e-07
-1.89029e-06
4.92355e-07
-1.9531e-06
4.13441e-07
-2.00315e-06
3.29049e-07
-2.03982e-06
2.40256e-07
-2.06266e-06
1.4817e-07
-2.07135e-06
5.39242e-08
-2.06574e-06
-4.13198e-08
-2.04584e-06
-1.36376e-07
-2.01183e-06
-2.30036e-07
-1.96403e-06
-3.21068e-07
-1.90297e-06
-4.08228e-07
-1.82932e-06
-4.90265e-07
-1.74394e-06
-5.6593e-07
-1.64786e-06
-6.33994e-07
-1.54228e-06
-6.93261e-07
-1.42858e-06
-7.42589e-07
-1.30826e-06
-7.80918e-07
-1.18301e-06
-8.07294e-07
-1.05463e-06
-8.20899e-07
-9.25038e-07
-8.21091e-07
-7.96232e-07
-8.07435e-07
-6.70281e-07
-7.79747e-07
-5.49285e-07
-7.38133e-07
-4.35343e-07
-6.83034e-07
-3.30527e-07
-6.1527e-07
-2.36849e-07
-5.3608e-07
-1.56244e-07
-4.47172e-07
-9.05493e-08
-3.50753e-07
-4.15086e-08
-2.49553e-07
-1.07856e-08
-1.46822e-07
-4.65029e-08
-1.24632e-08
6.22292e-08
-4.74763e-08
1.89276e-07
-1.02728e-07
3.14254e-07
-1.75943e-07
4.33541e-07
-2.6486e-07
5.44261e-07
-3.67227e-07
6.44093e-07
-4.80798e-07
7.31247e-07
-6.03341e-07
8.04433e-07
-7.32649e-07
8.62799e-07
-8.66555e-07
9.05881e-07
-1.00295e-06
9.33544e-07
-1.13979e-06
9.45933e-07
-1.27513e-06
9.43425e-07
-1.40711e-06
9.26585e-07
-1.534e-06
8.96134e-07
-1.65418e-06
8.52914e-07
-1.76615e-06
7.97862e-07
-1.86857e-06
7.31993e-07
-1.96021e-06
6.56382e-07
-2.04e-06
5.72149e-07
-2.10702e-06
4.80458e-07
-2.16048e-06
3.82505e-07
-2.19974e-06
2.7952e-07
-2.22433e-06
1.72762e-07
-2.23393e-06
6.35191e-08
-2.22836e-06
-4.68882e-08
-2.20762e-06
-1.57112e-07
-2.17188e-06
-2.65776e-07
-2.12147e-06
-3.71479e-07
-2.0569e-06
-4.72802e-07
-1.97885e-06
-5.68316e-07
-1.88819e-06
-6.56591e-07
-1.78597e-06
-7.36214e-07
-1.67342e-06
-8.05808e-07
-1.55195e-06
-8.64054e-07
-1.42316e-06
-9.09716e-07
-1.28877e-06
-9.41678e-07
-1.1507e-06
-9.58974e-07
-1.01096e-06
-9.60828e-07
-8.717e-07
-9.46695e-07
-7.35143e-07
-9.16305e-07
-6.03568e-07
-8.69708e-07
-4.79282e-07
-8.0732e-07
-3.64588e-07
-7.29964e-07
-2.61753e-07
-6.38915e-07
-1.72985e-07
-5.35939e-07
-1.00418e-07
-4.2332e-07
-4.60976e-08
-3.03873e-07
-1.19909e-08
-1.80928e-07
-5.84938e-08
-1.36472e-08
7.58764e-08
-5.19455e-08
2.27574e-07
-1.12284e-07
3.74592e-07
-1.92077e-07
5.13335e-07
-2.88764e-07
6.40948e-07
-3.99807e-07
7.55136e-07
-5.227e-07
8.5414e-07
-6.54975e-07
9.36708e-07
-7.94219e-07
1.00204e-06
-9.38085e-07
1.04975e-06
-1.08431e-06
1.07977e-06
-1.23072e-06
1.09235e-06
-1.37527e-06
1.08797e-06
-1.516e-06
1.06732e-06
-1.65111e-06
1.03124e-06
-1.77891e-06
9.80723e-07
-1.89789e-06
9.16835e-07
-2.00663e-06
8.40737e-07
-2.1039e-06
7.5365e-07
-2.18859e-06
6.56843e-07
-2.25976e-06
5.51627e-07
-2.31661e-06
4.39349e-07
-2.35848e-06
3.21391e-07
-2.38488e-06
1.99162e-07
-2.39547e-06
7.41097e-08
-2.39007e-06
-5.22896e-08
-2.36865e-06
-1.78524e-07
-2.33138e-06
-3.03051e-07
-2.27856e-06
-4.24297e-07
-2.2107e-06
-5.40665e-07
-2.12847e-06
-6.50541e-07
-2.03275e-06
-7.5231e-07
-1.9246e-06
-8.44367e-07
-1.80527e-06
-9.25142e-07
-1.6762e-06
-9.93123e-07
-1.53903e-06
-1.04689e-06
-1.39557e-06
-1.08513e-06
-1.24782e-06
-1.10673e-06
-1.09791e-06
-1.11074e-06
-9.48129e-07
-1.09648e-06
-8.00856e-07
-1.06358e-06
-6.58567e-07
-1.012e-06
-5.23788e-07
-9.42099e-07
-3.99064e-07
-8.54687e-07
-2.86932e-07
-7.51048e-07
-1.89888e-07
-6.32984e-07
-1.10363e-07
-5.02844e-07
-5.07122e-08
-3.63524e-07
-1.31994e-08
-2.18441e-07
-7.16932e-08
-1.48273e-08
9.07037e-08
-5.64038e-08
2.6915e-07
-1.21824e-07
4.40013e-07
-2.08198e-07
5.99709e-07
-3.12664e-07
7.45414e-07
-4.32396e-07
8.74869e-07
-5.64624e-07
9.86367e-07
-7.06639e-07
1.07872e-06
-8.55816e-07
1.15122e-06
-1.00962e-06
1.20355e-06
-1.16564e-06
1.23578e-06
-1.32157e-06
1.24827e-06
-1.47523e-06
1.24164e-06
-1.62462e-06
1.2167e-06
-1.76784e-06
1.17446e-06
-1.90316e-06
1.11605e-06
-2.02901e-06
1.04269e-06
-2.14397e-06
9.55695e-07
-2.24677e-06
8.56445e-07
-2.33628e-06
7.46358e-07
-2.41155e-06
6.26898e-07
-2.47177e-06
4.99564e-07
-2.51626e-06
3.65887e-07
-2.54453e-06
2.27431e-07
-2.55622e-06
8.5795e-08
-2.55112e-06
-5.73865e-08
-2.5292e-06
-2.00441e-07
-2.4906e-06
-3.4166e-07
-2.4356e-06
-4.79296e-07
-2.36469e-06
-6.11574e-07
-2.27853e-06
-7.36695e-07
-2.178e-06
-8.52847e-07
-2.06414e-06
-9.58228e-07
-1.93822e-06
-1.05106e-06
-1.80171e-06
-1.12963e-06
-1.65628e-06
-1.19231e-06
-1.50383e-06
-1.23759e-06
-1.34642e-06
-1.26414e-06
-1.18631e-06
-1.27085e-06
-1.02591e-06
-1.25687e-06
-8.67793e-07
-1.2217e-06
-7.14628e-07
-1.16516e-06
-5.69169e-07
-1.08756e-06
-4.34223e-07
-9.89634e-07
-3.12606e-07
-8.72665e-07
-2.07114e-07
-7.38475e-07
-1.20494e-07
-5.89465e-07
-5.54094e-08
-4.28609e-07
-1.44287e-08
-2.59422e-07
-8.61219e-08
-1.6015e-08
1.06719e-07
-6.08883e-08
3.14024e-07
-1.31419e-07
5.10543e-07
-2.24409e-07
6.92699e-07
-3.36692e-07
8.57697e-07
-4.65153e-07
1.00333e-06
-6.06748e-07
1.12796e-06
-7.58523e-07
1.2305e-06
-9.17634e-07
1.31033e-06
-1.08136e-06
1.36728e-06
-1.24713e-06
1.40155e-06
-1.41249e-06
1.41364e-06
-1.57519e-06
1.40433e-06
-1.73311e-06
1.37462e-06
-1.88431e-06
1.32566e-06
-2.02701e-06
1.25874e-06
-2.1596e-06
1.17528e-06
-2.28064e-06
1.07673e-06
-2.38884e-06
9.64649e-07
-2.48308e-06
8.40601e-07
-2.56239e-06
7.06209e-07
-2.62595e-06
5.63123e-07
-2.67309e-06
4.13025e-07
-2.70329e-06
2.57627e-07
-2.71617e-06
9.86791e-08
-2.71153e-06
-6.20311e-08
-2.68929e-06
-2.22674e-07
-2.64957e-06
-3.81378e-07
-2.59265e-06
-5.36225e-07
-2.51896e-06
-6.85261e-07
-2.42916e-06
-8.26497e-07
-2.32408e-06
-9.57926e-07
-2.20477e-06
-1.07754e-06
-2.0725e-06
-1.18334e-06
-1.92875e-06
-1.27339e-06
-1.77522e-06
-1.34583e-06
-1.61387e-06
-1.39894e-06
-1.44683e-06
-1.43117e-06
-1.27649e-06
-1.44119e-06
-1.1054e-06
-1.42796e-06
-9.36304e-07
-1.39079e-06
-7.7208e-07
-1.32939e-06
-6.15728e-07
-1.24391e-06
-4.70325e-07
-1.13504e-06
-3.38987e-07
-1.004e-06
-2.24826e-07
-8.52636e-07
-1.30914e-07
-6.83377e-07
-6.02439e-08
-4.99279e-07
-1.56952e-08
-3.03971e-07
-1.01817e-07
-1.72204e-08
1.23939e-07
-6.54326e-08
3.62236e-07
-1.41131e-07
5.86242e-07
-2.40805e-07
7.92373e-07
-3.60974e-07
9.77867e-07
-4.98225e-07
1.14058e-06
-6.49233e-07
1.27897e-06
-8.10793e-07
1.39206e-06
-9.79836e-07
1.47937e-06
-1.15345e-06
1.5409e-06
-1.32889e-06
1.57699e-06
-1.5036e-06
1.58835e-06
-1.6752e-06
1.57593e-06
-1.8415e-06
1.54092e-06
-2.0005e-06
1.48466e-06
-2.15039e-06
1.40864e-06
-2.28954e-06
1.31443e-06
-2.41648e-06
1.20368e-06
-2.52994e-06
1.07811e-06
-2.62878e-06
9.39444e-07
-2.71204e-06
7.89468e-07
-2.7789e-06
6.29978e-07
-2.82867e-06
4.62803e-07
-2.86085e-06
2.89801e-07
-2.87504e-06
1.12867e-07
-2.871e-06
-6.60661e-08
-2.84866e-06
-2.45017e-07
-2.80808e-06
-4.21955e-07
-2.74951e-06
-5.94798e-07
-2.67336e-06
-7.61412e-07
-2.58023e-06
-9.19622e-07
-2.47094e-06
-1.06722e-06
-2.34651e-06
-1.20197e-06
-2.20818e-06
-1.32167e-06
-2.05744e-06
-1.42413e-06
-1.89602e-06
-1.50725e-06
-1.7259e-06
-1.56906e-06
-1.54933e-06
-1.60775e-06
-1.36876e-06
-1.62176e-06
-1.18691e-06
-1.60981e-06
-1.0067e-06
-1.57101e-06
-8.3123e-07
-1.50486e-06
-6.63748e-07
-1.41139e-06
-5.07621e-07
-1.29116e-06
-3.66281e-07
-1.14534e-06
-2.43177e-07
-9.7574e-07
-1.41726e-07
-7.84827e-07
-6.52676e-08
-5.75738e-07
-1.70141e-08
-3.52224e-07
-1.18831e-07
-1.84523e-08
1.42391e-07
-7.00672e-08
4.13851e-07
-1.51021e-07
6.67195e-07
-2.57473e-07
8.98825e-07
-3.85622e-07
1.10602e-06
-5.31741e-07
1.2867e-06
-6.92218e-07
1.43945e-06
-8.63585e-07
1.56342e-06
-1.04254e-06
1.65833e-06
-1.22598e-06
1.72434e-06
-1.411e-06
1.76201e-06
-1.59491e-06
1.77225e-06
-1.77522e-06
1.75625e-06
-1.94969e-06
1.71539e-06
-2.11626e-06
1.65123e-06
-2.2731e-06
1.56547e-06
-2.41855e-06
1.45988e-06
-2.55117e-06
1.3363e-06
-2.66967e-06
1.1966e-06
-2.77293e-06
1.04271e-06
-2.86e-06
8.76538e-07
-2.93007e-06
7.00044e-07
-2.98246e-06
5.15196e-07
-3.01665e-06
3.23991e-07
-3.03224e-06
1.2846e-07
-3.02898e-06
-6.93258e-08
-3.00676e-06
-2.67242e-07
-2.9656e-06
-4.63109e-07
-2.90572e-06
-6.54684e-07
-2.82747e-06
-8.39662e-07
-2.73141e-06
-1.01568e-06
-2.61831e-06
-1.18032e-06
-2.48914e-06
-1.33114e-06
-2.34512e-06
-1.46568e-06
-2.18772e-06
-1.58152e-06
-2.01869e-06
-1.67628e-06
-1.84004e-06
-1.74771e-06
-1.65405e-06
-1.79373e-06
-1.46332e-06
-1.81249e-06
-1.27069e-06
-1.80244e-06
-1.07926e-06
-1.76244e-06
-8.9235e-07
-1.69177e-06
-7.13489e-07
-1.59025e-06
-5.46345e-07
-1.45831e-06
-3.94683e-07
-1.297e-06
-2.62313e-07
-1.10811e-06
-1.53025e-07
-8.94116e-07
-7.05298e-08
-6.58233e-07
-1.83999e-08
-4.04354e-07
-1.37231e-07
-1.97191e-08
1.62111e-07
-7.48197e-08
4.68951e-07
-1.6114e-07
7.53515e-07
-2.74494e-07
1.01218e-06
-4.10737e-07
1.24226e-06
-5.65817e-07
1.44178e-06
-7.35819e-07
1.60945e-06
-9.17004e-07
1.74461e-06
-1.10583e-06
1.84716e-06
-1.299e-06
1.91751e-06
-1.49345e-06
1.95645e-06
-1.68634e-06
1.96515e-06
-1.87512e-06
1.94503e-06
-2.05746e-06
1.89773e-06
-2.23129e-06
1.82506e-06
-2.39474e-06
1.72892e-06
-2.54617e-06
1.61131e-06
-2.68414e-06
1.47427e-06
-2.80739e-06
1.31985e-06
-2.91483e-06
1.15014e-06
-3.00552e-06
9.67224e-07
-3.07866e-06
7.73188e-07
-3.1336e-06
5.70141e-07
-3.16982e-06
3.6021e-07
-3.18691e-06
1.4555e-07
-3.1846e-06
-7.16389e-08
-3.16274e-06
-2.89103e-07
-3.12133e-06
-5.04522e-07
-3.06051e-06
-7.15504e-07
-2.98059e-06
-9.19579e-07
-2.88207e-06
-1.1142e-06
-2.76564e-06
-1.29675e-06
-2.63222e-06
-1.46456e-06
-2.48299e-06
-1.61492e-06
-2.31938e-06
-1.74513e-06
-2.14311e-06
-1.85255e-06
-1.95622e-06
-1.9346e-06
-1.76106e-06
-1.98889e-06
-1.56029e-06
-2.01325e-06
-1.35691e-06
-2.00583e-06
-1.15418e-06
-1.96517e-06
-9.5567e-07
-1.89027e-06
-7.65184e-07
-1.78074e-06
-5.86709e-07
-1.63678e-06
-4.24374e-07
-1.45934e-06
-2.82374e-07
-1.25011e-06
-1.64902e-07
-1.01159e-06
-7.60774e-08
-7.47058e-07
-1.98664e-08
-4.60565e-07
-1.57097e-07
-2.10284e-08
1.83139e-07
-7.97161e-08
5.27639e-07
-1.71538e-07
8.45337e-07
-2.91938e-07
1.13258e-06
-4.36408e-07
1.38673e-06
-6.0055e-07
1.60592e-06
-7.80129e-07
1.78903e-06
-9.71123e-07
1.9356e-06
-1.16975e-06
2.04579e-06
-1.3725e-06
2.12026e-06
-1.57614e-06
2.16009e-06
-1.77774e-06
2.16674e-06
-1.97464e-06
2.14193e-06
-2.16447e-06
2.08756e-06
-2.34512e-06
2.00571e-06
-2.51475e-06
1.89855e-06
-2.67172e-06
1.76829e-06
-2.81463e-06
1.61718e-06
-2.94224e-06
1.44747e-06
-3.05351e-06
1.26141e-06
-3.14754e-06
1.06125e-06
-3.22357e-06
8.49212e-07
-3.28095e-06
6.27526e-07
-3.31918e-06
3.98437e-07
-3.33784e-06
1.64214e-07
-3.33665e-06
-7.28316e-08
-3.31542e-06
-3.10329e-07
-3.27411e-06
-5.45836e-07
-3.21279e-06
-7.7682e-07
-3.13172e-06
-1.00066e-06
-3.03129e-06
-1.21463e-06
-2.91212e-06
-1.41591e-06
-2.77507e-06
-1.60161e-06
-2.62121e-06
-1.76877e-06
-2.45195e-06
-1.9144e-06
-2.26895e-06
-2.03554e-06
-2.07426e-06
-2.12929e-06
-1.87026e-06
-2.1929e-06
-1.65968e-06
-2.22383e-06
-1.44565e-06
-2.21987e-06
-1.23161e-06
-2.1792e-06
-1.02137e-06
-2.10051e-06
-8.19029e-07
-1.98308e-06
-6.28906e-07
-1.8269e-06
-4.55521e-07
-1.63273e-06
-3.03488e-07
-1.40214e-06
-1.77445e-07
-1.13763e-06
-8.19559e-08
-8.42547e-07
-2.14269e-08
-5.21094e-07
-1.78524e-07
-2.23876e-08
2.05526e-07
-8.47821e-08
5.90034e-07
-1.82264e-07
9.42819e-07
-3.09877e-07
1.26019e-06
-4.6272e-07
1.53957e-06
-6.36026e-07
1.77923e-06
-8.25222e-07
1.97822e-06
-1.02598e-06
2.13636e-06
-1.23428e-06
2.25408e-06
-1.44639e-06
2.33236e-06
-1.65892e-06
2.37263e-06
-1.86883e-06
2.37665e-06
-2.07339e-06
2.34649e-06
-2.27019e-06
2.28436e-06
-2.45713e-06
2.19265e-06
-2.63236e-06
2.07378e-06
-2.7943e-06
1.93023e-06
-2.9416e-06
1.76447e-06
-3.07308e-06
1.57895e-06
-3.18774e-06
1.37608e-06
-3.28474e-06
1.15826e-06
-3.36337e-06
9.2784e-07
-3.42302e-06
6.87176e-07
-3.46319e-06
4.38609e-07
-3.48348e-06
1.84505e-07
-3.48358e-06
-7.27321e-08
-3.46328e-06
-3.30633e-07
-3.42246e-06
-5.86649e-07
-3.36116e-06
-8.38129e-07
-3.2795e-06
-1.08231e-06
-3.17783e-06
-1.3163e-06
-3.05665e-06
-1.5371e-06
-2.91669e-06
-1.74157e-06
-2.75896e-06
-1.9265e-06
-2.58475e-06
-2.08861e-06
-2.39569e-06
-2.2246e-06
-2.19378e-06
-2.3312e-06
-1.98141e-06
-2.40527e-06
-1.76137e-06
-2.44386e-06
-1.5369e-06
-2.44434e-06
-1.31163e-06
-2.40447e-06
-1.08959e-06
-2.32255e-06
-8.75187e-07
-2.19749e-06
-6.73105e-07
-2.02899e-06
-4.88278e-07
-1.81755e-06
-3.25782e-07
-1.56464e-06
-1.90738e-07
-1.27267e-06
-8.82097e-08
-9.45075e-07
-2.30947e-08
-5.86209e-07
-2.01619e-07
-2.38045e-08
2.29331e-07
-9.0044e-08
6.56273e-07
-1.93367e-07
1.04614e-06
-3.2838e-07
1.3952e-06
-4.89755e-07
1.70095e-06
-6.72325e-07
1.9618e-06
-8.71153e-07
2.17705e-06
-1.0816e-06
2.34681e-06
-1.29937e-06
2.47185e-06
-1.52053e-06
2.55353e-06
-1.74154e-06
2.59364e-06
-1.95925e-06
2.59436e-06
-2.17087e-06
2.5581e-06
-2.37398e-06
2.48747e-06
-2.56648e-06
2.38515e-06
-2.7466e-06
2.25389e-06
-2.91279e-06
2.09643e-06
-3.06378e-06
1.91546e-06
-3.19847e-06
1.71364e-06
-3.31595e-06
1.49356e-06
-3.41545e-06
1.25775e-06
-3.49631e-06
1.0087e-06
-3.55797e-06
7.48839e-07
-3.59997e-06
4.80608e-07
-3.62191e-06
2.06444e-07
-3.62346e-06
-7.11759e-08
-3.60439e-06
-3.49708e-07
-3.56452e-06
-6.2652e-07
-3.50379e-06
-8.98861e-07
-3.42225e-06
-1.16385e-06
-3.32011e-06
-1.41844e-06
-3.19775e-06
-1.65945e-06
-3.05579e-06
-1.88354e-06
-2.89509e-06
-2.08721e-06
-2.71683e-06
-2.26687e-06
-2.52255e-06
-2.41888e-06
-2.31418e-06
-2.53957e-06
-2.09409e-06
-2.62536e-06
-1.86511e-06
-2.67284e-06
-1.63055e-06
-2.6789e-06
-1.39423e-06
-2.6408e-06
-1.1604e-06
-2.55637e-06
-9.33782e-07
-2.42411e-06
-7.19451e-07
-2.24332e-06
-5.22788e-07
-2.01422e-06
-3.49372e-07
-1.73806e-06
-2.04863e-07
-1.41718e-06
-9.48831e-08
-1.05506e-06
-2.4883e-08
-6.56209e-07
-2.26502e-07
-2.52879e-08
2.54619e-07
-9.55306e-08
7.26516e-07
-2.049e-07
1.15551e-06
-3.4752e-07
1.53782e-06
-5.17596e-07
1.87102e-06
-7.09521e-07
2.15372e-06
-9.17969e-07
2.3855e-06
-1.13796e-06
2.56681e-06
-1.36493e-06
2.69882e-06
-1.59473e-06
2.78333e-06
-1.82367e-06
2.82258e-06
-2.04851e-06
2.8192e-06
-2.26642e-06
2.77602e-06
-2.475e-06
2.69605e-06
-2.67218e-06
2.58234e-06
-2.85626e-06
2.43797e-06
-3.0258e-06
2.26596e-06
-3.1796e-06
2.06926e-06
-3.3167e-06
1.85074e-06
-3.43628e-06
1.61314e-06
-3.53765e-06
1.35913e-06
-3.62025e-06
1.0913e-06
-3.68359e-06
8.12174e-07
-3.72723e-06
5.24247e-07
-3.75079e-06
2.3001e-07
-3.75396e-06
-6.80131e-08
-3.73643e-06
-3.67234e-07
-3.69799e-06
-6.64961e-07
-3.63848e-06
-9.58373e-07
-3.55784e-06
-1.24449e-06
-3.45614e-06
-1.52014e-06
-3.33362e-06
-1.78198e-06
-3.19072e-06
-2.02643e-06
-3.02815e-06
-2.24977e-06
-2.84695e-06
-2.44807e-06
-2.64851e-06
-2.61732e-06
-2.43465e-06
-2.75342e-06
-2.2077e-06
-2.85231e-06
-1.97047e-06
-2.91007e-06
-1.72636e-06
-2.92301e-06
-1.4793e-06
-2.88786e-06
-1.2338e-06
-2.80187e-06
-9.94897e-07
-2.66302e-06
-7.68068e-07
-2.47015e-06
-5.59184e-07
-2.2231e-06
-3.74375e-07
-1.92286e-06
-2.19905e-07
-1.57165e-06
-1.02022e-07
-1.17294e-06
-2.6806e-08
-7.31425e-07
-2.53308e-07
-2.68476e-08
2.81466e-07
-1.01275e-07
8.00944e-07
-2.16925e-07
1.27116e-06
-3.67383e-07
1.68828e-06
-5.46335e-07
2.04998e-06
-7.47693e-07
2.35508e-06
-9.65705e-07
2.60351e-06
-1.19503e-06
2.79613e-06
-1.43082e-06
2.93461e-06
-1.66871e-06
3.02122e-06
-1.90488e-06
3.05875e-06
-2.136e-06
3.05032e-06
-2.35925e-06
2.99926e-06
-2.57224e-06
2.90903e-06
-2.77299e-06
2.7831e-06
-2.9599e-06
2.62488e-06
-3.13166e-06
2.43772e-06
-3.28721e-06
2.22482e-06
-3.42572e-06
1.98924e-06
-3.54649e-06
1.73391e-06
-3.64897e-06
1.46161e-06
-3.7327e-06
1.17502e-06
-3.79725e-06
8.76728e-07
-3.84226e-06
5.6926e-07
-3.86739e-06
2.55132e-07
-3.87228e-06
-6.31165e-08
-3.85664e-06
-3.8288e-07
-3.82015e-06
-7.01445e-07
-3.76258e-06
-1.01595e-06
-3.68373e-06
-1.32334e-06
-3.58351e-06
-1.62035e-06
-3.462e-06
-1.90349e-06
-3.31943e-06
-2.169e-06
-3.15633e-06
-2.41287e-06
-2.97352e-06
-2.63088e-06
-2.77222e-06
-2.81862e-06
-2.55412e-06
-2.97153e-06
-2.3214e-06
-3.08503e-06
-2.07687e-06
-3.15461e-06
-1.82392e-06
-3.17596e-06
-1.56664e-06
-3.14514e-06
-1.30974e-06
-3.05877e-06
-1.05857e-06
-2.91418e-06
-8.19054e-07
-2.70966e-06
-5.97586e-07
-2.44457e-06
-4.00906e-07
-2.11954e-06
-2.3595e-07
-1.73661e-06
-1.09674e-07
-1.29921e-06
-2.88786e-08
-8.12221e-07
-2.82187e-07
-2.8496e-08
3.09962e-07
-1.07319e-07
8.79766e-07
-2.29515e-07
1.39336e-06
-3.88067e-07
1.84683e-06
-5.76079e-07
2.23799e-06
-7.86929e-07
2.56593e-06
-1.0144e-06
2.83098e-06
-1.25276e-06
3.0345e-06
-1.49687e-06
3.17871e-06
-1.74214e-06
3.2665e-06
-1.98464e-06
3.30124e-06
-2.22098e-06
3.28666e-06
-2.44836e-06
3.22664e-06
-2.66447e-06
3.12514e-06
-2.86744e-06
2.98607e-06
-3.05581e-06
2.81325e-06
-3.22843e-06
2.61034e-06
-3.38442e-06
2.38081e-06
-3.52311e-06
2.12793e-06
-3.64398e-06
1.85478e-06
-3.74663e-06
1.56426e-06
-3.8307e-06
1.2591e-06
-3.8959e-06